/*--------------------------------*- C++ -*----------------------------------*\
  =========                 |
  \\      /  F ield         | OpenFOAM: The Open Source CFD Toolbox
   \\    /   O peration     | Website:  https://openfoam.org
    \\  /    A nd           | Version:  7
     \\/     M anipulation  |
\*---------------------------------------------------------------------------*/
FoamFile
{
    version     2.0;
    format      ascii;
    class       volScalarField;
    location    "0.4";
    object      p;
}
// * * * * * * * * * * * * * * * * * * * * * * * * * * * * * * * * * * * * * //

dimensions      [0 2 -2 0 0 0 0];

internalField   nonuniform List<scalar> 
900
(
-1.18186e-08
-0.000284391
-0.000449048
-0.000453386
-0.00026503
0.000120643
0.000694071
0.00144231
0.00235196
0.00340901
0.00459829
0.00590313
0.00730519
0.0087844
0.010319
0.0118858
0.0134603
0.0150166
0.0165287
0.0179695
0.0193126
0.0205318
0.0216017
0.0224984
0.0231993
0.0236842
0.0239393
0.0239699
0.0238132
0.0235167
0.000279441
-7.41504e-06
-0.000120678
-7.69996e-05
0.000131544
0.000514557
0.00107017
0.00179074
0.00266604
0.00368388
0.00483015
0.00608891
0.00744241
0.00887114
0.0103539
0.0118681
0.0133897
0.0148937
0.0163543
0.0177456
0.0190417
0.0202173
0.0212485
0.0221135
0.0227932
0.0232731
0.0235475
0.0236268
0.0235233
0.0232247
0.000445914
9.64795e-05
-2.15352e-05
3.24611e-05
0.000246196
0.000627847
0.00117687
0.00188699
0.00274925
0.0037524
0.004883
0.00612561
0.00746285
0.00887552
0.0103427
0.0118419
0.0133494
0.0148402
0.0162886
0.0176688
0.0189549
0.0201218
0.0211458
0.0220056
0.0226829
0.0231642
0.0234449
0.0235339
0.0234233
0.0230582
0.000457312
3.90742e-05
-0.000101276
-5.16756e-05
0.000161448
0.000543453
0.00109296
0.0018036
0.00266674
0.00367157
0.00480505
0.006052
0.00739525
0.0088157
0.0102925
0.0118031
0.0133235
0.0148286
0.0162924
0.0176885
0.0189906
0.020173
0.0212115
0.0220842
0.0227722
0.0232612
0.0235451
0.0236301
0.0234945
0.0230562
0.000275437
-0.000195415
-0.000357086
-0.000314357
-0.000101915
0.000283681
0.000840109
0.00156056
0.0024364
0.00345694
0.00460927
0.00587831
0.00724691
0.00869591
0.0102043
0.0117491
0.0133061
0.0148496
0.0163527
0.0177883
0.0191289
0.0203478
0.0214195
0.0223208
0.0230316
0.0235358
0.0238259
0.0239059
0.0237471
0.0232518
-0.000115053
-0.000627781
-0.000808366
-0.000771908
-0.000557869
-0.000163863
0.000407025
0.00114748
0.00204865
0.00309976
0.00428784
0.00559771
0.00701204
0.00851143
0.0100744
0.0116777
0.0132962
0.0149033
0.0164711
0.0179711
0.0193742
0.020652
0.021777
0.0227241
0.0234711
0.0239999
0.0243014
0.0243788
0.0241995
0.0236569
-0.000719356
-0.00127108
-0.00146938
-0.00143751
-0.00121836
-0.000810097
-0.000216404
0.00055487
0.00149454
0.0025916
0.00383284
0.00520283
0.00668392
0.00825626
0.00989786
0.0115846
0.0132906
0.0149878
0.0166471
0.0182379
0.0197292
0.0210899
0.0222902
0.023302
0.0241004
0.0246651
0.024985
0.025063
0.0248645
0.0242757
-0.00154365
-0.00213697
-0.00235307
-0.0023238
-0.00209542
-0.00166643
-0.00104108
-0.000227746
0.000763954
0.00192266
0.00323482
0.00468461
0.00625392
0.00792234
0.00966715
0.0114634
0.0132838
0.0150991
0.0168782
0.0185881
0.0201953
0.0216655
0.0229653
0.0240631
0.0249305
0.0255439
0.0258905
0.0259731
0.025755
0.025115
-0.00259861
-0.00323965
-0.0034748
-0.00344624
-0.00320427
-0.00274772
-0.00208139
-0.00121434
-0.00015666
0.00107982
0.0024811
0.00403085
0.00571042
0.00749873
0.00937225
0.011305
0.0132683
0.0152313
0.0171606
0.0190206
0.0207742
0.0223834
0.0238104
0.0250187
0.0259755
0.0266529
0.0270358
0.0271271
0.0268879
0.0261874
-0.00389977
-0.00459701
-0.00485341
-0.00482391
-0.00456383
-0.00407249
-0.00335543
-0.00242247
-0.00128437
4.65283e-05
0.00155565
0.00322611
0.00503864
0.00697146
0.00900017
0.0110977
0.0132341
0.0153764
0.0174888
0.0195327
0.021467
0.0232488
0.0248347
0.0261823
0.0272526
0.0280125
0.0284434
0.0285481
0.0282848
0.0275112
-0.00546754
-0.0062313
-0.00651192
-0.00647996
-0.00619703
-0.00566323
-0.00488509
-0.00387345
-0.00263983
-0.00119726
0.000439056
0.00225161
0.00422049
0.00632324
0.00853467
0.0108266
0.0131678
0.0155233
0.0178548
0.0201201
0.0222736
0.0242665
0.0260486
0.0275697
0.0287829
0.0296476
0.0301407
0.0302643
0.029973
0.0291106
-0.00732729
-0.00816978
-0.0084783
-0.00844235
-0.00813142
-0.00754685
-0.00669653
-0.00559261
-0.00424759
-0.00267532
-0.000891755
0.00108495
0.00323426
0.00553312
0.00795568
0.0104728
0.0130523
0.0156573
0.0182469
0.0207753
0.0231915
0.0254402
0.0274625
0.0291986
0.0305907
0.0315883
0.0321614
0.0323107
0.0319865
0.0310156
-0.0095098
-0.0104455
-0.0107864
-0.0107447
-0.0103999
-0.00975532
-0.00882062
-0.00760971
-0.00613636
-0.00441544
-0.00246374
-0.000300133
0.0020543
0.00457606
0.00723884
0.0100129
0.0128658
0.0157588
0.0186487
0.0214862
0.0242147
0.0267711
0.0290863
0.0310879
0.032704
0.0338703
0.0345466
0.0347307
0.034367
0.0332626
-0.0120521
-0.0130986
-0.0134769
-0.0134272
-0.0130417
-0.0123264
-0.0112935
-0.00995938
-0.00833935
-0.00644959
-0.00430788
-0.00193387
0.000650906
0.00342269
0.00635528
0.00941947
0.0125809
0.0158019
0.0190373
0.0222343
0.025331
0.0282556
0.0309269
0.0332566
0.0351542
0.0365359
0.0373462
0.0375775
0.0371664
0.0358959
-0.0149986
-0.0161776
-0.0165992
-0.0165385
-0.0161035
-0.0153044
-0.0141573
-0.0126815
-0.0108945
-0.00881408
-0.00645925
-0.00385049
-0.00100976
0.00203927
0.00527083
0.00865642
0.0121632
0.0157534
0.0193815
0.0229926
0.0265199
0.0298827
0.032986
0.0357219
0.037975
0.0396344
0.0406215
0.0409181
0.0404492
0.0389683
-0.0184031
-0.0197418
-0.0202137
-0.0201368
-0.0196406
-0.0187415
-0.0174609
-0.0158218
-0.0138447
-0.0115495
-0.00895678
-0.00608795
-0.00296533
0.000387811
0.00394681
0.00768487
0.0115716
0.0155711
0.0196396
0.0237219
0.0277481
0.0316293
0.0352554
0.0384951
0.0412007
0.0432227
0.0444475
0.0448368
0.0442973
0.0425435
-0.0223311
-0.0238649
-0.0243944
-0.0242933
-0.0237197
-0.0226992
-0.0212605
-0.0194321
-0.0172379
-0.0147006
-0.0118429
-0.00868732
-0.00525663
-0.00157338
0.00233957
0.00645834
0.0107563
0.0152023
0.0197567
0.0243675
0.0289647
0.0334539
0.0377104
0.0415759
0.0448615
0.0473643
0.0489162
0.0494427
0.048817
0.0466987
-0.0268644
-0.0286401
-0.0292345
-0.0290954
-0.0284206
-0.0272498
-0.0256214
-0.0235709
-0.021127
-0.0183158
-0.0151625
-0.0116916
-0.00792634
-0.00388829
0.000402139
0.00492522
0.00966023
0.0145832
0.0196627
0.0248547
0.0300946
0.0352877
0.0402984
0.0449406
0.048975
0.052125
0.0541397
0.0548788
0.0541515
0.0515289
-0.0321077
-0.034188
-0.0348528
-0.034652
-0.0338405
-0.0324788
-0.0306185
-0.0283038
-0.0255694
-0.0224457
-0.0189616
-0.0151439
-0.0110166
-0.00660067
-0.00191331
0.00303107
0.00821968
0.0136391
0.0192707
0.0250847
0.0310305
0.0370227
0.0429237
0.0485241
0.0535283
0.0575628
0.0602516
0.0613376
0.0605028
0.0571587
-0.0381998
-0.0406703
-0.0414047
-0.0411008
-0.0400982
-0.0384877
-0.0363379
-0.0337037
-0.0306263
-0.0271421
-0.0232846
-0.0190838
-0.0145656
-0.00975001
-0.00465119
0.000722804
0.00636899
0.0122875
0.0184779
0.0249325
0.0316258
0.0384968
0.0454234
0.0521893
0.0584464
0.0637027
0.067401
0.0690815
0.0681722
0.0637717
-0.0453349
-0.0483108
-0.0490976
-0.0486177
-0.0473397
-0.0453968
-0.042878
-0.0398494
-0.0363605
-0.0324542
-0.0281701
-0.0235431
-0.0186014
-0.0133653
-0.00784563
-0.00204395
0.00404781
0.0104458
0.0171719
0.0242489
0.0316899
0.039479
0.0475392
0.0556817
0.0635347
0.0704831
0.0757259
0.0784657
0.0776302
0.0716876
-0.0538029
-0.0574313
-0.0582133
-0.0574286
-0.0557435
-0.0533469
-0.0503479
-0.0468235
-0.0428312
-0.0384221
-0.0336436
-0.0285366
-0.0231333
-0.0174547
-0.0115093
-0.00529239
0.00121506
0.00804575
0.0152461
0.0228754
0.0309978
0.0396665
0.048891
0.0585722
0.0683883
0.0776512
0.0852793
0.0899457
0.089627
0.0815495
-0.0640721
-0.0685115
-0.0691396
-0.0678212
-0.0655232
-0.0624961
-0.0588611
-0.0547015
-0.0500819
-0.0450629
-0.0397014
-0.0340462
-0.0281341
-0.0219878
-0.0156141
-0.00900306
-0.00212633
0.00506446
0.0126348
0.0206832
0.0293305
0.0387183
0.0489883
0.0602212
0.0722889
0.0845969
0.0958656
0.104025
0.105339
0.0947449
-0.0769629
-0.0822876
-0.0824047
-0.0801472
-0.076914
-0.0729981
-0.0685068
-0.0635185
-0.0581035
-0.0523328
-0.0462744
-0.0399852
-0.0335065
-0.0268619
-0.0200568
-0.0130775
-0.00588791
0.00157528
0.00937533
0.0176531
0.0265761
0.0363753
0.0473547
0.0598695
0.0741999
0.090203
0.10678
0.121061
0.126508
0.114261
-0.0940316
-0.0999066
-0.0986832
-0.0947697
-0.0900972
-0.0849116
-0.0792501
-0.0731675
-0.0667351
-0.0600344
-0.0531428
-0.0461224
-0.0390151
-0.0318419
-0.024604
-0.0172834
-0.00984189
-0.00221993
0.00569126
0.013994
0.0228993
0.0327045
0.0438633
0.0570512
0.0731783
0.0930873
0.116725
0.140975
0.155525
0.146023
-0.118437
-0.123153
-0.118662
-0.111825
-0.104922
-0.0979048
-0.0906389
-0.0831247
-0.0754217
-0.0676109
-0.0597676
-0.051947
-0.0441798
-0.0364751
-0.028823
-0.0211968
-0.0135541
-0.0058319
0.00207176
0.0102426
0.0189107
0.0283963
0.0392547
0.0524268
0.0695886
0.0930354
0.125
0.163788
0.195747
0.199825
-0.156822
-0.154593
-0.142598
-0.130629
-0.120248
-0.110605
-0.101226
-0.0919793
-0.0828547
-0.0738875
-0.0651143
-0.0565547
-0.0482088
-0.0400598
-0.0320779
-0.024223
-0.0164447
-0.0086813
-0.000854184
0.00719335
0.0156309
0.0248169
0.0354201
0.0484807
0.0666143
0.0935831
0.1349
0.192705
0.253203
0.290279
-0.22369
-0.195941
-0.168916
-0.14838
-0.132755
-0.11971
-0.108037
-0.0971967
-0.0869456
-0.0771747
-0.0678265
-0.058856
-0.0502183
-0.0418663
-0.0337501
-0.0258162
-0.018005
-0.0102464
-0.00245025
0.00552481
0.0139458
0.0232159
0.0341735
0.0484241
0.0691395
0.101832
0.155292
0.237336
0.33976
0.451292
-0.359775
-0.239822
-0.185662
-0.153919
-0.133112
-0.117995
-0.105805
-0.095074
-0.0851294
-0.0757034
-0.066682
-0.0580009
-0.0496124
-0.0414738
-0.0335422
-0.0257701
-0.0181009
-0.0104608
-0.00274534
0.00520759
0.0137819
0.023459
0.0353693
0.0516864
0.0765731
0.117636
0.187709
0.30313
0.474925
0.760106
-0.684667
-0.275154
-0.154283
-0.120155
-0.103859
-0.0938871
-0.0869453
-0.0807696
-0.0743685
-0.06758
-0.0605028
-0.0532592
-0.0459449
-0.038623
-0.0313257
-0.0240576
-0.0167966
-0.00948846
-0.00203326
0.00574674
0.0140711
0.0237453
0.0359381
0.0529768
0.079437
0.124289
0.205461
0.359439
0.648911
1.23762
)
;

boundaryField
{
    movingWall
    {
        type            zeroGradient;
    }
    fixedWalls
    {
        type            zeroGradient;
    }
    frontAndBack
    {
        type            empty;
    }
}


// ************************************************************************* //
