/*--------------------------------*- C++ -*----------------------------------*\
  =========                 |
  \\      /  F ield         | OpenFOAM: The Open Source CFD Toolbox
   \\    /   O peration     | Website:  https://openfoam.org
    \\  /    A nd           | Version:  7
     \\/     M anipulation  |
\*---------------------------------------------------------------------------*/
FoamFile
{
    version     2.0;
    format      ascii;
    class       surfaceScalarField;
    location    "0.4";
    object      phi;
}
// * * * * * * * * * * * * * * * * * * * * * * * * * * * * * * * * * * * * * //

dimensions      [0 3 -1 0 0 0 0];

internalField   nonuniform List<scalar> 
1740
(
-1.69555e-07
1.69564e-07
-1.61697e-06
1.44742e-06
-4.00611e-06
2.38914e-06
-6.83216e-06
2.82605e-06
-9.76925e-06
2.93709e-06
-1.26412e-05
2.87194e-06
-1.53576e-05
2.71642e-06
-1.78687e-05
2.51105e-06
-2.01404e-05
2.27179e-06
-2.21449e-05
2.00445e-06
-2.38567e-05
1.71176e-06
-2.52526e-05
1.39599e-06
-2.63123e-05
1.05968e-06
-2.70181e-05
7.05785e-07
-2.73557e-05
3.37614e-07
-2.73146e-05
-4.11058e-08
-2.68884e-05
-4.26242e-07
-2.60752e-05
-8.13193e-07
-2.48783e-05
-1.19692e-06
-2.33063e-05
-1.57195e-06
-2.13739e-05
-1.93245e-06
-1.91017e-05
-2.27216e-06
-1.65181e-05
-2.58356e-06
-1.36629e-05
-2.85519e-06
-1.05987e-05
-3.06427e-06
-7.43615e-06
-3.16253e-06
-4.37978e-06
-3.05637e-06
-1.78955e-06
-2.59023e-06
-2.06707e-07
-1.58284e-06
-2.06706e-07
-1.4482e-06
1.61776e-06
-5.39766e-06
5.39689e-06
-1.09739e-05
7.96539e-06
-1.73722e-05
9.2243e-06
-2.40102e-05
9.57516e-06
-3.05274e-05
9.38909e-06
-3.67124e-05
8.90145e-06
-4.2436e-05
8.23465e-06
-4.76086e-05
7.44437e-06
-5.21596e-05
6.55543e-06
-5.60291e-05
5.58125e-06
-5.91652e-05
4.53208e-06
-6.15234e-05
3.41789e-06
-6.30669e-05
2.24927e-06
-6.37669e-05
1.03767e-06
-6.36036e-05
-2.04389e-07
-6.25664e-05
-1.46344e-06
-6.06552e-05
-2.72446e-06
-5.78809e-05
-3.97125e-06
-5.42667e-05
-5.18612e-06
-4.98492e-05
-6.3499e-06
-4.46803e-05
-7.44105e-06
-3.88312e-05
-8.4327e-06
-3.24023e-05
-9.2841e-06
-2.55458e-05
-9.92077e-06
-1.8509e-05
-1.01993e-05
-1.17012e-05
-9.86414e-06
-5.76174e-06
-8.52969e-06
-1.55325e-06
-5.79132e-06
-1.75996e-06
-2.44176e-06
4.05952e-06
-8.14738e-06
1.11025e-05
-1.58251e-05
1.56431e-05
-2.44693e-05
1.78685e-05
-3.33775e-05
1.84834e-05
-4.21066e-05
1.81182e-05
-5.03864e-05
1.71813e-05
-5.80442e-05
1.58925e-05
-6.49576e-05
1.43578e-05
-7.10303e-05
1.26281e-05
-7.6182e-05
1.07329e-05
-8.03442e-05
8.69427e-06
-8.34594e-05
6.53312e-06
-8.54808e-05
4.27074e-06
-8.63728e-05
1.92965e-06
-8.61112e-05
-4.6602e-07
-8.46844e-05
-2.89025e-06
-8.20942e-05
-5.31463e-06
-7.83572e-05
-7.70828e-06
-7.35058e-05
-1.00375e-05
-6.75903e-05
-1.22654e-05
-6.06814e-05
-1.43499e-05
-5.28762e-05
-1.62379e-05
-4.431e-05
-1.78503e-05
-3.51825e-05
-1.90483e-05
-2.58062e-05
-1.95756e-05
-1.66815e-05
-1.89889e-05
-8.57735e-06
-1.66339e-05
-2.56661e-06
-1.18021e-05
-4.32657e-06
-3.007e-06
7.06653e-06
-9.83876e-06
1.79343e-05
-1.88695e-05
2.46739e-05
-2.89276e-05
2.79265e-05
-3.92325e-05
2.87883e-05
-4.93006e-05
2.81863e-05
-5.8836e-05
2.67166e-05
-6.76462e-05
2.47027e-05
-7.55927e-05
2.23043e-05
-8.25662e-05
1.96016e-05
-8.84754e-05
1.66421e-05
-9.32434e-05
1.34623e-05
-9.68059e-05
1.00956e-05
-9.9111e-05
6.5758e-06
-0.000100119
2.93779e-06
-9.98039e-05
-7.81267e-07
-9.81526e-05
-4.54154e-06
-9.51675e-05
-8.2997e-06
-9.08673e-05
-1.20086e-05
-8.52883e-05
-1.56165e-05
-7.84874e-05
-1.90663e-05
-7.05448e-05
-2.22925e-05
-6.15703e-05
-2.52124e-05
-5.17165e-05
-2.77042e-05
-4.12056e-05
-2.95592e-05
-3.03812e-05
-3.03999e-05
-1.97915e-05
-2.95786e-05
-1.02923e-05
-2.6133e-05
-3.13196e-06
-1.89624e-05
-7.45853e-06
-3.32568e-06
1.03922e-05
-1.08876e-05
2.54962e-05
-2.08319e-05
3.46182e-05
-3.18499e-05
3.89445e-05
-4.3096e-05
4.00344e-05
-5.40572e-05
3.91476e-05
-6.44229e-05
3.70823e-05
-7.39911e-05
3.42709e-05
-8.26156e-05
3.09289e-05
-9.01808e-05
2.71668e-05
-9.65903e-05
2.30516e-05
-0.000101763
1.86348e-05
-0.00010563
1.39633e-05
-0.000108138
9.08362e-06
-0.000109244
4.04368e-06
-0.000108919
-1.10617e-06
-0.000107149
-6.31209e-06
-0.000103933
-1.15155e-05
-9.92893e-05
-1.66522e-05
-9.32539e-05
-2.16518e-05
-8.58849e-05
-2.64354e-05
-7.72653e-05
-3.0912e-05
-6.75108e-05
-3.49669e-05
-5.67827e-05
-3.84323e-05
-4.53167e-05
-4.10252e-05
-3.34785e-05
-4.22381e-05
-2.18557e-05
-4.12014e-05
-1.13822e-05
-3.66064e-05
-3.45585e-06
-2.68888e-05
-1.09144e-05
-3.54822e-06
1.39404e-05
-1.16683e-05
3.36162e-05
-2.23416e-05
4.52916e-05
-3.41422e-05
5.0745e-05
-4.61612e-05
5.20534e-05
-5.78559e-05
5.08423e-05
-6.89016e-05
4.81279e-05
-7.90891e-05
4.44584e-05
-8.8268e-05
4.01078e-05
-9.63192e-05
3.5218e-05
-0.000103144
2.98763e-05
-0.000108659
2.41495e-05
-0.000112793
1.80981e-05
-0.000115491
1.17815e-05
-0.000116708
5.25988e-06
-0.00011641
-1.40366e-06
-0.00011458
-8.14189e-06
-0.000111214
-1.48813e-05
-0.000106326
-2.15411e-05
-9.9946e-05
-2.80313e-05
-9.21309e-05
-3.42505e-05
-8.29625e-05
-4.00805e-05
-7.25581e-05
-4.53713e-05
-6.10852e-05
-4.99052e-05
-4.87924e-05
-5.33179e-05
-3.60696e-05
-5.4961e-05
-2.35496e-05
-5.37214e-05
-1.2248e-05
-4.7908e-05
-3.69828e-06
-3.54386e-05
-1.46126e-05
-3.76248e-06
1.77029e-05
-1.24206e-05
4.22743e-05
-2.38093e-05
5.66803e-05
-3.63895e-05
6.33252e-05
-4.91859e-05
6.48499e-05
-6.16211e-05
6.32775e-05
-7.33538e-05
5.98606e-05
-8.4167e-05
5.52716e-05
-9.39064e-05
4.98471e-05
-0.000102451
4.37625e-05
-0.0001097
3.71259e-05
-0.000115571
3.00198e-05
-0.000119991
2.25183e-05
-0.000122902
1.46925e-05
-0.000124256
6.61426e-06
-0.000124018
-1.64204e-06
-0.000122163
-9.99709e-06
-0.000118681
-1.83636e-05
-0.000113577
-2.66447e-05
-0.000106877
-3.47313e-05
-9.86294e-05
-4.24981e-05
-8.89122e-05
-4.97977e-05
-7.78424e-05
-5.64411e-05
-6.55931e-05
-6.21545e-05
-5.24283e-05
-6.64827e-05
-3.87687e-05
-6.86205e-05
-2.53029e-05
-6.71872e-05
-1.3139e-05
-6.00719e-05
-3.94929e-06
-4.46283e-05
-1.85619e-05
-4.01218e-06
2.17151e-05
-1.32748e-05
5.15369e-05
-2.54641e-05
6.88695e-05
-3.89198e-05
7.6781e-05
-5.25919e-05
7.85219e-05
-6.58621e-05
7.65478e-05
-7.83692e-05
7.23677e-05
-8.98868e-05
6.67892e-05
-0.000100257
6.0217e-05
-0.000109356
5.28623e-05
-0.000117086
4.48554e-05
-0.000123361
3.62952e-05
-0.000128111
2.72684e-05
-0.000131276
1.7857e-05
-0.000132804
8.14267e-06
-0.000132656
-1.79078e-06
-0.000130799
-1.18542e-05
-0.000127214
-2.19485e-05
-0.000121896
-3.19623e-05
-0.00011486
-4.17675e-05
-0.000106143
-5.12149e-05
-9.58161e-05
-6.01246e-05
-8.39931e-05
-6.82642e-05
-7.08526e-05
-7.52949e-05
-5.66774e-05
-8.0658e-05
-4.1927e-05
-8.33709e-05
-2.73589e-05
-8.17553e-05
-1.41911e-05
-7.32397e-05
-4.25323e-06
-5.45662e-05
-2.28152e-05
-4.31724e-06
2.60323e-05
-1.42973e-05
6.1517e-05
-2.74281e-05
8.20003e-05
-4.191e-05
9.12628e-05
-5.66059e-05
9.32178e-05
-7.08502e-05
9.07921e-05
-8.42577e-05
8.57752e-05
-9.65916e-05
7.91231e-05
-0.00010769
7.13151e-05
-0.00011743
6.26023e-05
-0.000125713
5.31388e-05
-0.000132458
4.30398e-05
-0.000137594
3.24043e-05
-0.00014106
2.13236e-05
-0.000142804
9.8867e-06
-0.000142779
-1.81612e-06
-0.000140944
-1.36892e-05
-0.000137268
-2.56245e-05
-0.000131731
-3.74986e-05
-0.000124333
-4.91664e-05
-0.000115094
-6.04537e-05
-0.000104072
-7.1146e-05
-9.1376e-05
-8.09605e-05
-7.71876e-05
-8.94833e-05
-6.18115e-05
-9.60341e-05
-4.5755e-05
-9.94274e-05
-2.98605e-05
-9.76497e-05
-1.54801e-05
-8.76201e-05
-4.63185e-06
-6.54145e-05
-2.7447e-05
-4.68833e-06
3.07207e-05
-1.55269e-05
7.23556e-05
-2.97753e-05
9.62487e-05
-4.54681e-05
0.000106956
-6.13661e-05
0.000109116
-7.6748e-05
0.000106174
-9.12012e-05
0.000100228
-0.000104478
9.23995e-05
-0.000116413
8.325e-05
-0.000126885
7.3075e-05
-0.000135802
6.2055e-05
-0.000143084
5.0322e-05
-0.000148666
3.7986e-05
-0.000152487
2.51456e-05
-0.000154494
1.18935e-05
-0.000154633
-1.67731e-06
-0.000152853
-1.54698e-05
-0.000149106
-2.93712e-05
-0.000143354
-4.32503e-05
-0.000135573
-5.69475e-05
-0.000125762
-7.02647e-05
-0.000113958
-8.29497e-05
-0.000100256
-9.46624e-05
-8.48404e-05
-0.000104899
-6.80379e-05
-0.000112837
-5.0414e-05
-0.000117051
-3.2916e-05
-0.000115148
-1.70612e-05
-0.000103475
-5.09976e-06
-7.7376e-05
-3.25468e-05
-5.13444e-06
3.58551e-05
-1.69959e-05
8.42171e-05
-3.25667e-05
0.000111819
-4.96829e-05
0.000124072
-6.69842e-05
0.000126417
-8.36837e-05
0.000122873
-9.93388e-05
0.000115883
-0.00011369
0.000106751
-0.000126572
9.61319e-05
-0.000137869
8.43726e-05
-0.000147496
7.16817e-05
-0.000155383
5.8209e-05
-0.000161471
4.40739e-05
-0.000165704
2.9379e-05
-0.000168027
1.42165e-05
-0.000168381
-1.32365e-06
-0.000166701
-1.71501e-05
-0.000162921
-3.31513e-05
-0.000156976
-4.91949e-05
-0.000148812
-6.51116e-05
-0.000138395
-8.06818e-05
-0.000125731
-9.5614e-05
-0.000110891
-0.000109502
-9.40532e-05
-0.000121737
-7.55693e-05
-0.00013132
-5.6072e-05
-0.000136549
-3.66382e-05
-0.000134582
-1.8992e-05
-0.000121121
-5.67249e-06
-9.06955e-05
-3.82193e-05
-5.6665e-06
4.15216e-05
-1.8741e-05
9.72917e-05
-3.58699e-05
0.000128948
-5.46505e-05
0.000142852
-7.35779e-05
0.000145344
-9.17897e-05
0.000141085
-0.000108809
0.000132903
-0.000124368
0.000122309
-0.000138304
0.000110068
-0.000150512
9.65806e-05
-0.00016092
8.20897e-05
-0.000169473
6.67621e-05
-0.000176124
5.07252e-05
-0.000180826
3.40809e-05
-0.000183525
1.69152e-05
-0.000184157
-6.91492e-07
-0.000182641
-1.86658e-05
-0.000178889
-3.69032e-05
-0.000172803
-5.52809e-05
-0.000164286
-7.36284e-05
-0.000153258
-9.171e-05
-0.000139677
-0.000109195
-0.000123577
-0.000125603
-0.000105116
-0.000140198
-8.46658e-05
-0.000151771
-6.29378e-05
-0.000158277
-4.11697e-05
-0.00015635
-2.13464e-05
-0.000140944
-6.37056e-06
-0.000105671
-4.45898e-05
-6.29927e-06
4.78209e-05
-2.08097e-05
0.000111802
-3.97701e-05
0.000147909
-6.04893e-05
0.000163572
-8.12902e-05
0.000166145
-0.000101222
0.000161017
-0.000119773
0.000151454
-0.000136668
0.000139204
-0.000151754
0.000125154
-0.000164946
0.000109772
-0.000176193
9.33365e-05
-0.000185462
7.60317e-05
-0.000192727
5.799e-05
-0.000197954
3.93073e-05
-0.000201093
2.00543e-05
-0.000202083
2.9845e-07
-0.000200819
-1.99296e-05
-0.000197189
-4.05328e-05
-0.000191053
-6.1417e-05
-0.000182259
-8.2423e-05
-0.00017066
-0.000103309
-0.000156146
-0.000123709
-0.000138686
-0.000143063
-0.0001184
-0.000160483
-9.56693e-05
-0.000174502
-7.12919e-05
-0.000182654
-4.6705e-05
-0.000180937
-2.42262e-05
-0.000163423
-7.22257e-06
-0.000122675
-5.18124e-05
-7.05313e-06
5.4874e-05
-2.32661e-05
0.000128015
-4.43802e-05
0.000169023
-6.73534e-05
0.000186545
-9.03026e-05
0.000189095
-0.000112176
0.000182891
-0.000132426
0.000171703
-0.000150775
0.000157553
-0.000167091
0.00014147
-0.000181319
0.000124
-0.000193441
0.000105459
-0.00020346
8.60499e-05
-0.000211375
6.59057e-05
-0.000217177
4.51094e-05
-0.000220831
2.37078e-05
-0.000222263
1.73028e-06
-0.000221371
-2.08213e-05
-0.000218
-4.39034e-05
-0.00021196
-6.74577e-05
-0.000203026
-9.13568e-05
-0.000190964
-0.000115371
-0.000175562
-0.00013911
-0.000156691
-0.000161934
-0.000134396
-0.000182778
-0.000109043
-0.000199855
-8.15232e-05
-0.000210174
-5.35184e-05
-0.000208941
-2.77766e-05
-0.000189165
-8.26925e-06
-0.000142182
-6.00817e-05
-7.95662e-06
6.28306e-05
-2.61983e-05
0.000146257
-4.98526e-05
0.000192677
-7.54472e-05
0.00021214
-0.000100852
0.000214499
-0.000124899
0.000206939
-0.000147007
0.000193811
-0.000166909
0.000177455
-0.000184507
0.000159069
-0.000199791
0.000139284
-0.000212794
0.000118462
-0.000223565
9.68208e-05
-0.000232148
7.44885e-05
-0.000238565
5.15262e-05
-0.000242802
2.79443e-05
-0.000244792
3.72079e-06
-0.000244419
-2.1194e-05
-0.000241494
-4.68282e-05
-0.000235765
-7.31872e-05
-0.000226918
-0.000100204
-0.000214599
-0.000127689
-0.000198455
-0.000155255
-0.000178203
-0.000182186
-0.000153759
-0.000207222
-0.000125429
-0.000228185
-9.4185e-05
-0.000241418
-6.20093e-05
-0.000241117
-3.22119e-05
-0.000218962
-9.57036e-06
-0.000164824
-6.9652e-05
-9.05042e-06
7.1881e-05
-2.97301e-05
0.000166936
-5.63973e-05
0.000219344
-8.50457e-05
0.000240788
-0.000113248
0.000242701
-0.000139708
0.000233399
-0.000163817
0.00021792
-0.000185338
0.000198975
-0.000204226
0.000177958
-0.00022054
0.000155598
-0.000234383
0.000132304
-0.00024587
0.000108308
-0.000255104
8.37229e-05
-0.000262155
5.85776e-05
-0.000267042
3.28311e-05
-0.000269715
6.39371e-06
-0.000270048
-2.08612e-05
-0.000267818
-4.90578e-05
-0.000262705
-7.83e-05
-0.000254288
-0.000108621
-0.00024206
-0.000139917
-0.000225469
-0.000171845
-0.000204008
-0.000203647
-0.000177372
-0.000233858
-0.000145726
-0.000259832
-0.000110084
-0.000277059
-7.27777e-05
-0.000278424
-3.78606e-05
-0.000253879
-1.1218e-05
-0.000191466
-8.087e-05
-1.0394e-05
8.2275e-05
-3.40385e-05
0.000190581
-6.43073e-05
0.000249613
-9.65236e-05
0.000273004
-0.000127903
0.00027408
-0.000157013
0.000262509
-0.000183233
0.000244141
-0.000206384
0.000222126
-0.000226506
0.000198081
-0.000243756
0.000172847
-0.000258331
0.00014688
-0.00027044
0.000120416
-0.000280264
9.35467e-05
-0.000287938
6.62514e-05
-0.000293529
3.8422e-05
-0.000297017
9.88159e-06
-0.000298278
-1.96e-05
-0.000297063
-5.02726e-05
-0.000292982
-8.2381e-05
-0.000285491
-0.000116112
-0.000273895
-0.000151513
-0.000257381
-0.000188359
-0.000235114
-0.000225914
-0.000206434
-0.000262538
-0.000171219
-0.000295047
-0.000130424
-0.000317854
-8.67558e-05
-0.000322092
-4.52504e-05
-0.000295385
-1.33634e-05
-0.000223353
-9.42334e-05
-1.20772e-05
9.43522e-05
-3.93822e-05
0.000217886
-7.39989e-05
0.00028423
-0.000110397
0.000309402
-0.000145367
0.00030905
-0.000177342
0.000294484
-0.000205724
0.000272524
-0.000230433
0.000246834
-0.00025164
0.000219287
-0.000269635
0.000190842
-0.000284749
0.000161994
-0.000297306
0.000132974
-0.000307592
0.000103833
-0.000315828
7.44873e-05
-0.000322149
4.47427e-05
-0.000326581
1.43142e-05
-0.000329024
-1.71575e-05
-0.000329215
-5.00815e-05
-0.000326706
-8.48903e-05
-0.000320827
-0.000121991
-0.000310667
-0.000161673
-0.000295082
-0.000203944
-0.00027278
-0.000248216
-0.000242553
-0.000292765
-0.000203745
-0.000333856
-0.000157029
-0.00036457
-0.000105433
-0.000373689
-5.52659e-05
-0.000345551
-1.62726e-05
-0.000262347
-0.000110506
-1.42402e-05
0.000108592
-4.6149e-05
0.000249795
-8.60718e-05
0.000324153
-0.000127381
0.000350712
-0.000166375
0.000348044
-0.000201374
0.000329483
-0.000231867
0.000303016
-0.000257935
0.000272902
-0.000279941
0.000241293
-0.00029836
0.000209262
-0.000313696
0.000177329
-0.000326421
0.000145699
-0.000336952
0.000114364
-0.000345618
8.31531e-05
-0.000352644
5.17683e-05
-0.000358127
1.97977e-05
-0.000362014
-1.32702e-05
-0.000364062
-4.80342e-05
-0.00036379
-8.51624e-05
-0.000360423
-0.000125357
-0.00035283
-0.000169267
-0.000339479
-0.000217295
-0.000318478
-0.000269217
-0.000287802
-0.00032344
-0.000245872
-0.000375786
-0.000192645
-0.000417797
-0.000131209
-0.000435124
-6.94314e-05
-0.000407329
-2.04406e-05
-0.000311338
-0.000130947
-1.7111e-05
0.000125703
-5.49324e-05
0.000287616
-0.000101398
0.000370618
-0.000148467
0.000397781
-0.000191892
0.000391469
-0.000229955
0.000367546
-0.00026233
0.000335391
-0.000289363
0.000299935
-0.000311687
0.000263617
-0.000330027
0.000227602
-0.000345102
0.000192404
-0.000357572
0.000158169
-0.000368005
0.000124797
-0.000376863
9.20108e-05
-0.000384482
5.93878e-05
-0.000391059
2.63748e-05
-0.000396623
-7.70633e-06
-0.000400993
-4.36643e-05
-0.000403714
-8.24412e-05
-0.000403964
-0.000125108
-0.00040043
-0.0001728
-0.000391185
-0.000226541
-0.000373613
-0.000286789
-0.000344557
-0.000352496
-0.00030094
-0.000419403
-0.000241221
-0.000477517
-0.000167866
-0.000508479
-9.03674e-05
-0.000484828
-2.68118e-05
-0.000374893
-0.000157758
-2.10733e-05
0.000146777
-6.66538e-05
0.000333197
-0.000121238
0.000425202
-0.000174988
0.000451531
-0.000223124
0.000439605
-0.000264042
0.000408464
-0.000297772
0.000369121
-0.000325065
0.000327229
-0.000346933
0.000285485
-0.000364423
0.000245092
-0.000378522
0.000206504
-0.000390106
0.000169752
-0.000399919
0.00013461
-0.00040857
0.000100662
-0.000416526
6.73436e-05
-0.000424107
3.39556e-05
-0.000431464
-3.48866e-07
-0.000438541
-3.6587e-05
-0.000444995
-7.5988e-05
-0.000450063
-0.00012004
-0.000452375
-0.000170488
-0.000449696
-0.00022922
-0.00043866
-0.000297825
-0.000414686
-0.00037647
-0.000372472
-0.000461616
-0.000307736
-0.000542253
-0.000220865
-0.000595349
-0.000122359
-0.000583334
-3.71548e-05
-0.000460098
-0.000194913
-2.67903e-05
0.000173567
-8.27437e-05
0.00038915
-0.000147365
0.000489824
-0.00020862
0.000512785
-0.000261366
0.000492351
-0.000304417
0.000451516
-0.00033843
0.000403133
-0.000364758
0.000353557
-0.000384922
0.000305649
-0.00040038
0.00026055
-0.000412432
0.000218556
-0.000422192
0.000179513
-0.000430588
0.000143006
-0.000438378
0.000108451
-0.000446163
7.51291e-05
-0.000454404
4.21963e-05
-0.000463409
8.65564e-06
-0.00047331
-2.66854e-05
-0.000483984
-6.53141e-05
-0.000494895
-0.000109128
-0.000504837
-0.000160546
-0.000511518
-0.000222539
-0.000511012
-0.00029833
-0.000497233
-0.00039025
-0.000461961
-0.000496888
-0.000396508
-0.000607706
-0.000296617
-0.000695241
-0.000171603
-0.000708348
-5.45654e-05
-0.000577135
-0.000249479
-3.54205e-05
0.000208988
-0.00010536
0.000459089
-0.000182042
0.000566506
-0.000251022
0.000581765
-0.000307317
0.000548646
-0.000350713
0.000494912
-0.000382897
0.000435316
-0.000406092
0.000376752
-0.000422491
0.000322048
-0.000434044
0.000272103
-0.000442397
0.000226908
-0.000448899
0.000186015
-0.000454642
0.000148749
-0.000460505
0.000114314
-0.000467204
8.18274e-05
-0.000475324
5.03161e-05
-0.00048534
1.86721e-05
-0.000497615
-1.44104e-05
-0.000512354
-5.05752e-05
-0.000529433
-9.20495e-05
-0.000548116
-0.000141863
-0.000566508
-0.000204146
-0.000580664
-0.000284174
-0.00058342
-0.000387494
-0.000563459
-0.00051685
-0.000506117
-0.000665047
-0.000398855
-0.000802503
-0.000244897
-0.000862306
-8.38135e-05
-0.000738219
-0.000333292
-4.89733e-05
0.000257961
-0.0001375
0.000547615
-0.000227443
0.00065645
-0.000302459
0.000656781
-0.000358959
0.000605146
-0.000398657
0.000534609
-0.000424868
0.000461528
-0.000441028
0.000392912
-0.000450166
0.000331187
-0.000454776
0.000276713
-0.00045683
0.000228962
-0.000457857
0.000187042
-0.000459037
0.000149929
-0.000461293
0.000116571
-0.000465379
8.59136e-05
-0.000471946
5.68831e-05
-0.000481596
2.83217e-05
-0.000494871
-1.13555e-06
-0.000512384
-3.30619e-05
-0.000534534
-6.98992e-05
-0.000561364
-0.000115033
-0.000591953
-0.000173558
-0.000623283
-0.000252844
-0.000648378
-0.000362399
-0.00065395
-0.000511277
-0.000619163
-0.000699835
-0.000519704
-0.000901962
-0.000344522
-0.00103749
-0.000130642
-0.000952099
-0.000463934
-7.08361e-05
0.000328797
-0.000182525
0.000659304
-0.000283338
0.000757263
-0.000357673
0.000731116
-0.000405949
0.000653423
-0.000433372
0.000562032
-0.000445699
0.000473854
-0.000447923
0.000395136
-0.000443991
0.000327254
-0.000436861
0.000269583
-0.00042868
0.000220782
-0.000420977
0.000179339
-0.000414843
0.000143794
-0.000411082
0.00011281
-0.000410334
8.51662e-05
-0.000413179
5.97277e-05
-0.000420217
3.53602e-05
-0.000432087
1.07337e-05
-0.000449642
-1.55066e-05
-0.00047382
-4.57213e-05
-0.000505553
-8.33001e-05
-0.000545369
-0.000133742
-0.000592321
-0.000205891
-0.000641779
-0.000312942
-0.000681688
-0.000471368
-0.000688178
-0.000693345
-0.000624798
-0.000965341
-0.000456735
-0.00120555
-0.000197844
-0.00121099
-0.000661778
-0.000106309
0.000435106
-0.000241529
0.000794524
-0.000340074
0.000855807
-0.000395385
0.000786428
-0.000416891
0.000674929
-0.000415498
0.000560639
-0.000400156
0.000458512
-0.000377432
0.000372412
-0.000351848
0.00030167
-0.000326367
0.000244102
-0.000302847
0.000197262
-0.000282408
0.000158899
-0.000265706
0.000127092
-0.000253146
0.00010025
-0.000245021
7.70413e-05
-0.00024163
5.63363e-05
-0.000243358
3.70888e-05
-0.000250826
1.82011e-05
-0.000264724
-1.60824e-06
-0.000286384
-2.40617e-05
-0.000317379
-5.23048e-05
-0.000359734
-9.13862e-05
-0.000415358
-0.000150267
-0.000484368
-0.000243932
-0.000560935
-0.0003948
-0.000626038
-0.000628243
-0.000638082
-0.000953297
-0.000534158
-0.00130948
-0.000274716
-0.00147043
-0.000936494
-0.000161936
0.000597042
-0.000302552
0.000935139
-0.000359102
0.000912358
-0.000354542
0.000781868
-0.000314855
0.000635242
-0.00025817
0.000503953
-0.000195874
0.000396216
-0.000134663
0.000311201
-7.81484e-05
0.000245156
-2.80353e-05
0.000193989
1.50839e-05
0.000154143
5.12169e-05
0.000122767
8.06481e-05
9.76611e-05
0.000103748
7.715e-05
0.000120828
5.99616e-05
0.000132083
4.50811e-05
0.000137522
3.16495e-05
0.000136884
1.88398e-05
0.000129577
5.6984e-06
0.000114532
-9.01715e-06
8.98788e-05
-2.76513e-05
5.26127e-05
-5.412e-05
-1.78606e-06
-9.58687e-05
-7.91689e-05
-0.000166549
-0.000184683
-0.000289286
-0.00031472
-0.000498206
-0.000439924
-0.000828093
-0.000480806
-0.00126859
-0.000324559
-0.00162668
-0.00126105
-0.000235492
0.000832535
-0.000296774
0.000996421
-0.000220394
0.000835978
-8.63566e-05
0.00064783
6.00309e-05
0.000488855
0.000199015
0.000364969
0.000322722
0.00027251
0.000428981
0.000204942
0.000518336
0.000155801
0.000592462
0.000119863
0.000653348
9.32575e-05
0.000702905
7.32097e-05
0.000742801
5.77642e-05
0.000774401
4.55509e-05
0.000798759
3.56031e-05
0.000816629
2.72111e-05
0.000828466
1.98131e-05
0.000834405
1.28999e-05
0.000834172
5.93149e-06
0.000826984
-1.82897e-06
0.000811233
-1.18998e-05
0.000783609
-2.64968e-05
0.000738111
-5.03707e-05
0.00066421
-9.26474e-05
0.000545597
-0.000170673
0.000363115
-0.000315724
0.000112529
-0.000577507
-0.000148631
-0.00100744
-0.000249065
-0.00152624
-0.00151012
-0.000175959
0.00100849
5.40896e-05
0.000766372
0.000406989
0.000483079
0.00072463
0.000330189
0.00098622
0.000227265
0.00119539
0.000155794
0.00136018
0.000107723
0.00148921
7.59092e-05
0.00159027
5.47432e-05
0.0016697
4.04385e-05
0.00173239
3.05587e-05
0.00178206
2.35399e-05
0.00182145
1.8381e-05
0.00185256
1.44431e-05
0.00187684
1.13159e-05
0.00189533
8.72294e-06
0.00190868
6.46058e-06
0.00191723
4.35297e-06
0.00192094
2.22009e-06
0.00191922
-1.0699e-07
0.00191092
-3.60158e-06
0.00189296
-8.53953e-06
0.00185955
-1.69564e-05
0.00179922
-3.23148e-05
0.00169023
-6.16804e-05
0.00149502
-0.000120522
0.0011627
-0.000245185
0.000672764
-0.000517497
0.000165148
-0.00101863
-0.00134497
0.00100849
0.00177487
0.00225795
0.00258813
0.0028154
0.00297119
0.00307892
0.00315483
0.00320957
0.00325001
0.00328057
0.00330411
0.00332249
0.00333693
0.00334825
0.00335697
0.00336343
0.00336778
0.00337
0.0033699
0.00336629
0.00335775
0.0033408
0.00330848
0.0032468
0.00312628
0.00288109
0.0023636
0.00134497
)
;

boundaryField
{
    movingWall
    {
        type            calculated;
        value           uniform 0;
    }
    fixedWalls
    {
        type            calculated;
        value           uniform 0;
    }
    frontAndBack
    {
        type            empty;
        value           nonuniform 0();
    }
}


// ************************************************************************* //
