/*--------------------------------*- C++ -*----------------------------------*\
  =========                 |
  \\      /  F ield         | OpenFOAM: The Open Source CFD Toolbox
   \\    /   O peration     | Website:  https://openfoam.org
    \\  /    A nd           | Version:  7
     \\/     M anipulation  |
\*---------------------------------------------------------------------------*/
FoamFile
{
    version     2.0;
    format      ascii;
    class       surfaceScalarField;
    location    "8.9";
    object      phi;
}
// * * * * * * * * * * * * * * * * * * * * * * * * * * * * * * * * * * * * * //

dimensions      [0 3 -1 0 0 0 0];

internalField   nonuniform List<scalar> 
1740
(
8.46535e-07
-8.45856e-07
5.20669e-07
3.25866e-07
-1.42023e-06
1.9409e-06
-4.81124e-06
3.39101e-06
-9.29953e-06
4.48829e-06
-1.45294e-05
5.22986e-06
-2.0201e-05
5.67164e-06
-2.60704e-05
5.86934e-06
-3.19266e-05
5.85626e-06
-3.75675e-05
5.64082e-06
-4.27804e-05
5.21299e-06
-4.73347e-05
4.55424e-06
-5.09834e-05
3.64876e-06
-5.34775e-05
2.49401e-06
-5.45875e-05
1.11002e-06
-5.41324e-05
-4.55097e-07
-5.2011e-05
-2.12139e-06
-4.82321e-05
-3.77892e-06
-4.29367e-05
-5.29537e-06
-3.64073e-05
-6.52942e-06
-2.90594e-05
-7.34789e-06
-2.14137e-05
-7.64569e-06
-1.40489e-05
-7.36474e-06
-7.54069e-06
-6.50826e-06
-2.39217e-06
-5.14851e-06
1.03963e-06
-3.4318e-06
2.61571e-06
-1.57608e-06
2.46014e-06
1.55568e-07
1.16343e-06
1.29671e-06
1.16343e-06
-3.08391e-07
-5.37465e-07
-3.51799e-06
3.53546e-06
-1.02282e-05
8.65113e-06
-2.00592e-05
1.3222e-05
-3.23503e-05
1.67794e-05
-4.63777e-05
1.92572e-05
-6.14557e-05
2.07497e-05
-7.69624e-05
2.1376e-05
-9.23201e-05
2.1214e-05
-0.000106964
2.02849e-05
-0.000120318
1.85668e-05
-0.000131785
1.60216e-05
-0.000140763
1.26267e-05
-0.000146675
8.40608e-06
-0.000149021
3.45559e-06
-0.000147441
-2.03471e-06
-0.000141764
-7.79836e-06
-0.000132082
-1.34609e-05
-0.000118777
-1.86003e-05
-0.000102535
-2.27715e-05
-8.43222e-05
-2.55612e-05
-6.53208e-05
-2.6647e-05
-4.68311e-05
-2.58545e-05
-3.01379e-05
-2.32014e-05
-1.63622e-05
-1.89242e-05
-6.31106e-06
-1.3483e-05
-3.30387e-07
-7.55675e-06
1.89741e-06
-2.07222e-06
1.35485e-06
1.83928e-06
2.51827e-06
-2.1125e-06
1.57503e-06
-9.27732e-06
1.07003e-05
-2.13598e-05
2.07336e-05
-3.76813e-05
2.95435e-05
-5.7317e-05
3.64151e-05
-7.92821e-05
4.12222e-05
-0.000102622
4.40899e-05
-0.000126437
4.5191e-05
-0.000149863
4.46402e-05
-0.000172046
4.24675e-05
-0.000192119
3.86396e-05
-0.000209204
3.31073e-05
-0.00022244
2.58619e-05
-0.000231023
1.69896e-05
-0.000234283
6.71566e-06
-0.000231748
-4.56981e-06
-0.000223231
-1.63159e-05
-0.000208891
-2.78002e-05
-0.000189284
-3.82081e-05
-0.000165365
-4.66902e-05
-0.000138467
-5.24595e-05
-0.000110215
-5.48988e-05
-8.24018e-05
-5.36675e-05
-5.68148e-05
-4.87884e-05
-3.50372e-05
-4.07019e-05
-1.82402e-05
-3.028e-05
-6.98586e-06
-1.88111e-05
-1.08766e-06
-7.97043e-06
5.65559e-07
1.86065e-07
3.08383e-06
-4.06127e-06
5.6363e-06
-1.54604e-05
2.20994e-05
-3.31726e-05
3.84459e-05
-5.60121e-05
5.23829e-05
-8.27322e-05
6.31353e-05
-0.000112109
7.05993e-05
-0.00014298
7.49604e-05
-0.000174237
7.64485e-05
-0.000204806
7.52095e-05
-0.000233615
7.1276e-05
-0.000259579
6.46032e-05
-0.00028161
5.51387e-05
-0.000298653
4.29045e-05
-0.000309738
2.80751e-05
-0.000314062
1.10396e-05
-0.000311065
-7.56728e-06
-0.000300519
-2.68614e-05
-0.000282604
-4.57156e-05
-0.000257954
-6.28574e-05
-0.000227684
-7.69602e-05
-0.00019336
-8.6784e-05
-0.000156921
-9.13382e-05
-0.000120541
-9.00467e-05
-8.64375e-05
-8.28922e-05
-5.66286e-05
-7.05107e-05
-3.26864e-05
-5.42222e-05
-1.55007e-05
-3.59968e-05
-5.10005e-06
-1.83711e-05
-5.71648e-07
-4.34233e-06
2.51219e-06
-5.95788e-06
1.15942e-05
-2.15818e-05
3.77233e-05
-4.49023e-05
6.17664e-05
-7.414e-05
8.16206e-05
-0.00010768
9.66752e-05
-0.000144059
0.000106978
-0.000181937
0.000112838
-0.000220053
0.000114565
-0.000257181
0.000112338
-0.000292096
0.00010619
-0.000323556
9.60639e-05
-0.000350322
8.19044e-05
-0.000371188
6.37709e-05
-0.000385049
4.19358e-05
-0.000390972
1.69629e-05
-0.000388289
-1.02508e-05
-0.000376677
-3.84732e-05
-0.000356252
-6.61403e-05
-0.000327631
-9.14787e-05
-0.000291971
-0.00011262
-0.000250967
-0.000127787
-0.000206792
-0.000135513
-0.00016196
-0.000134879
-0.000119119
-0.000125734
-8.0779e-05
-0.000108851
-4.9011e-05
-8.59902e-05
-2.51597e-05
-5.98481e-05
-9.6299e-06
-3.39009e-05
-1.78991e-06
-1.21823e-05
7.22278e-07
-7.73348e-06
1.93277e-05
-2.73978e-05
5.73876e-05
-5.61068e-05
9.04754e-05
-9.14728e-05
0.000116987
-0.000131499
0.000136701
-0.000174488
0.000149967
-0.000218946
0.000157297
-0.000263501
0.00015912
-0.000306827
0.000155663
-0.000347599
0.000146962
-0.000384473
0.000132938
-0.000416099
0.000113531
-0.000441156
8.88275e-05
-0.000458407
5.91868e-05
-0.000466777
2.53332e-05
-0.000465441
-1.15869e-05
-0.000453907
-5.0007e-05
-0.000432129
-8.79185e-05
-0.000400588
-0.00012302
-0.00036037
-0.000152838
-0.0003132
-0.000174958
-0.000261416
-0.000187297
-0.000207857
-0.000188438
-0.000155651
-0.000177939
-0.000107906
-0.000156596
-6.73403e-05
-0.000126556
-3.59197e-05
-9.12687e-05
-1.45724e-05
-5.52481e-05
-3.05766e-06
-2.36971e-05
-2.33539e-06
-9.35766e-06
2.86853e-05
-3.27627e-05
8.07926e-05
-6.64884e-05
0.000124201
-0.000107572
0.000158071
-0.000153653
0.000182782
-0.000202815
0.000199129
-0.000253441
0.000207923
-0.00030408
0.000209759
-0.000353352
0.000204936
-0.000399881
0.000193491
-0.000442267
0.000175323
-0.000479085
0.000150349
-0.000508918
0.00011866
-0.000530401
8.06699e-05
-0.00054229
3.72219e-05
-0.000543549
-1.03276e-05
-0.000533433
-6.01234e-05
-0.000511625
-0.000109726
-0.000478348
-0.000156297
-0.000434485
-0.000196701
-0.000381675
-0.000227768
-0.000322343
-0.000246629
-0.000259634
-0.000251147
-0.00019721
-0.000240364
-0.000138907
-0.000214898
-8.82844e-05
-0.000177178
-4.81367e-05
-0.000131416
-2.00966e-05
-8.32881e-05
-4.42466e-06
-3.93691e-05
-6.76005e-06
-1.08035e-05
3.94888e-05
-3.75578e-05
0.000107547
-7.57997e-05
0.000162443
-0.000122056
0.000204327
-0.000173641
0.000234367
-0.000228452
0.00025394
-0.000284776
0.000264246
-0.000341121
0.000266104
-0.000396092
0.000259907
-0.000448305
0.000245704
-0.000496343
0.000223362
-0.000538744
0.00019275
-0.000574015
0.000153931
-0.000600663
0.000107319
-0.000617255
5.38131e-05
-0.000622499
-5.0828e-06
-0.000615315
-6.73076e-05
-0.000595016
-0.000130026
-0.000561431
-0.000189881
-0.000515097
-0.000243035
-0.00045742
-0.000285445
-0.000390793
-0.000313256
-0.000318604
-0.000323336
-0.000245078
-0.00031389
-0.000174912
-0.000285065
-0.000112722
-0.000239368
-6.23962e-05
-0.000181742
-2.65122e-05
-0.000119172
-5.98937e-06
-5.98919e-05
-1.27494e-05
-1.20369e-05
5.15257e-05
-4.16611e-05
0.000137171
-8.37969e-05
0.000204579
-0.000134546
0.000255076
-0.000190951
0.000290772
-0.000250761
0.00031375
-0.000312199
0.000325684
-0.000373765
0.000327671
-0.000434087
0.000320229
-0.000491813
0.000303429
-0.000545548
0.000277097
-0.000593827
0.00024103
-0.00063511
0.000195214
-0.000667792
0.000140001
-0.000690247
7.62673e-05
-0.000700884
5.55484e-06
-0.000698264
-6.99279e-05
-0.000681221
-0.000147068
-0.000649073
-0.000222029
-0.000601845
-0.000290263
-0.000540529
-0.000346761
-0.000467305
-0.00038648
-0.00038567
-0.000404971
-0.00030037
-0.00039919
-0.000217054
-0.000368381
-0.000141626
-0.000314796
-7.93905e-05
-0.000243978
-3.41973e-05
-0.000164365
-7.87172e-06
-8.62175e-05
-2.06211e-05
-1.30181e-05
6.45438e-05
-4.4943e-05
0.000169096
-9.02307e-05
0.000249866
-0.000144654
0.0003095
-0.000205048
0.000351165
-0.00026905
0.000377752
-0.000334852
0.000391486
-0.000400976
0.000393794
-0.000466103
0.000385355
-0.000528949
0.000366276
-0.000588185
0.000336333
-0.000642383
0.000295228
-0.000689992
0.000242822
-0.000729329
0.000179338
-0.0007586
0.000105539
-0.000775927
2.28815e-05
-0.00077949
-6.63653e-05
-0.000767595
-0.000158962
-0.000738943
-0.000250682
-0.000692888
-0.000336318
-0.000629789
-0.00040986
-0.000551362
-0.000464907
-0.000460974
-0.000495359
-0.000363735
-0.000496429
-0.000266249
-0.000465867
-0.000175917
-0.000405128
-9.98319e-05
-0.000320063
-4.35575e-05
-0.00022064
-1.0201e-05
-0.000119574
-3.08222e-05
-1.37056e-05
7.82494e-05
-4.72758e-05
0.000202666
-9.48591e-05
0.00029745
-0.000152004
0.000366645
-0.000215397
0.000414559
-0.000282605
0.00044496
-0.000351812
0.000460693
-0.000421585
0.000463567
-0.000490687
0.000454458
-0.000557937
0.000433526
-0.000622108
0.000400503
-0.000681855
0.000354975
-0.000735671
0.000296638
-0.000781853
0.00022552
-0.000818495
0.00014218
-0.000843503
4.78902e-05
-0.000854681
-5.51876e-05
-0.000849828
-0.000163815
-0.000826965
-0.000273546
-0.000784639
-0.000378643
-0.000722343
-0.000472156
-0.000641011
-0.000546239
-0.00054352
-0.00059285
-0.000435033
-0.000604916
-0.000322961
-0.000577939
-0.000216314
-0.000511774
-0.000124378
-0.000411999
-5.49979e-05
-0.00029002
-1.31112e-05
-0.000161461
-4.39334e-05
-1.40635e-05
9.23128e-05
-4.85504e-05
0.000237153
-9.74734e-05
0.000346373
-0.000156261
0.000425432
-0.00022151
0.000479808
-0.000290745
0.000514196
-0.000362163
0.00053211
-0.000434391
0.000535795
-0.000506294
0.000526361
-0.000576822
0.000504054
-0.000644888
0.000468569
-0.000709284
0.000419371
-0.000768611
0.000355965
-0.000821228
0.000278137
-0.000865214
0.000186166
-0.000898357
8.10338e-05
-0.000918186
-3.53591e-05
-0.00092206
-0.000159941
-0.000907334
-0.000288272
-0.000871663
-0.000414314
-0.000813467
-0.000530352
-0.000732546
-0.00062716
-0.000630816
-0.00069458
-0.000512995
-0.000722738
-0.000386925
-0.000704008
-0.000263168
-0.000635532
-0.000153553
-0.000521614
-6.88982e-05
-0.000374675
-1.6738e-05
-0.000213621
-6.06714e-05
-1.40691e-05
0.000106382
-4.86973e-05
0.000271781
-9.79342e-05
0.00039561
-0.000157185
0.000484682
-0.000223008
0.000545631
-0.000292909
0.000584097
-0.000365104
0.000604305
-0.000438291
0.000608982
-0.00051145
0.00059952
-0.000583681
0.000576285
-0.000654078
0.000538966
-0.00072162
0.000486914
-0.000785094
0.000419439
-0.000843017
0.00033606
-0.00089358
0.000236729
-0.000934598
0.000122052
-0.000963474
-6.48337e-06
-0.000977289
-0.000146126
-0.000972821
-0.00029274
-0.000946849
-0.000440285
-0.000896582
-0.000580619
-0.000820358
-0.000703384
-0.000718599
-0.000796338
-0.000594892
-0.000846446
-0.00045686
-0.00084204
-0.000316254
-0.000776137
-0.000187645
-0.000650224
-8.55825e-05
-0.000476737
-2.12166e-05
-0.000277987
-8.1888e-05
-1.37209e-05
0.000120103
-4.77097e-05
0.00030577
-9.62112e-05
0.000444111
-0.00015469
0.000543161
-0.000219704
0.000610645
-0.000288753
0.000653146
-0.000360077
0.000675629
-0.000432444
0.000681348
-0.000504956
0.000672033
-0.000576885
0.000648214
-0.000647532
0.000609613
-0.00071612
0.000555501
-0.000781694
0.000485014
-0.00084304
0.000397406
-0.000898596
0.000292284
-0.000946374
0.00016983
-0.000983889
3.10318e-05
-0.0010081
-0.000121916
-0.00101544
-0.000285395
-0.00100195
-0.00045378
-0.000963609
-0.00061896
-0.000897073
-0.00076992
-0.000800753
-0.000892658
-0.000676303
-0.000970896
-0.000530175
-0.000988168
-0.000374548
-0.000931765
-0.000226583
-0.000798188
-0.000105277
-0.000598043
-2.66763e-05
-0.000356587
-0.000108564
-1.30463e-05
0.000133149
-4.56677e-05
0.000338392
-9.24264e-05
0.00049087
-0.000148903
0.000599638
-0.000211679
0.000673421
-0.000278254
0.000719721
-0.000346891
0.000744266
-0.00041643
0.000750888
-0.000486102
0.000741705
-0.000555361
0.000717473
-0.000623748
0.000677999
-0.00069077
0.000622524
-0.000755806
0.00055005
-0.000818007
0.000459606
-0.000876197
0.000350474
-0.000928765
0.000222398
-0.000973543
7.581e-05
-0.00100765
-8.78112e-05
-0.00102746
-0.000265586
-0.00102851
-0.00045273
-0.00100574
-0.000641727
-0.000954081
-0.000821579
-0.000869557
-0.000977181
-0.00075109
-0.00108936
-0.00060278
-0.00113648
-0.000435991
-0.00109855
-0.000269789
-0.00096439
-0.000128056
-0.000739776
-3.3233e-05
-0.00045141
-0.000141797
-1.21096e-05
0.000145259
-4.27612e-05
0.000369043
-8.6895e-05
0.000535004
-0.000140225
0.000652968
-0.000199359
0.000732555
-0.0002618
0.000782162
-0.00032584
0.000808306
-0.000390399
0.000815446
-0.000454842
0.000806148
-0.000518826
0.000781456
-0.000582152
0.000741326
-0.000644657
0.000685029
-0.000706105
0.000611497
-0.000766092
0.000519594
-0.000823942
0.000408324
-0.000878574
0.00027703
-0.000928345
0.000125581
-0.00097077
-4.53862e-05
-0.00100255
-0.000233806
-0.00101907
-0.00043621
-0.00101458
-0.000646218
-0.000982487
-0.000853672
-0.000916337
-0.00104333
-0.000811697
-0.001194
-0.000669069
-0.00127911
-0.000497325
-0.0012703
-0.000316019
-0.0011457
-0.000153778
-0.000902016
-4.098e-05
-0.000564209
-0.000182777
-1.1019e-05
0.000156278
-3.93141e-05
0.000397338
-8.01663e-05
0.000575856
-0.000129381
0.000702183
-0.000183575
0.00078675
-0.000240264
0.00083885
-0.000297785
0.000865827
-0.000355158
0.000872819
-0.000411911
0.000862902
-0.000467926
0.000837471
-0.000523292
0.000796693
-0.000578202
0.000739938
-0.000632844
0.000666139
-0.000687312
0.000574061
-0.000741497
0.00046251
-0.000794954
0.000330487
-0.000846746
0.000177373
-0.000894916
2.78357e-06
-0.000936966
-0.000191756
-0.000968447
-0.000404729
-0.00098345
-0.000631215
-0.000974359
-0.000862763
-0.000932495
-0.00108519
-0.000849825
-0.00127667
-0.000722195
-0.00140674
-0.000554058
-0.00143843
-0.000363242
-0.00133651
-0.000182028
-0.00108323
-4.99822e-05
-0.000696254
-0.000232759
-9.93711e-06
0.000166215
-3.58124e-05
0.000423213
-7.30658e-05
0.000613109
-0.00011747
0.000746587
-0.000165615
0.000834895
-0.000215041
0.000888276
-0.000264179
0.000914965
-0.000312201
0.000920841
-0.000358846
0.000909547
-0.000404258
0.000882883
-0.000448849
0.000841283
-0.000493185
0.000784275
-0.000537898
0.000710852
-0.000583593
0.000619757
-0.000630753
0.000509669
-0.000679595
0.00037933
-0.00072987
0.000227647
-0.000780856
5.37699e-05
-0.000830209
-0.000142402
-0.000874627
-0.000360311
-0.00090853
-0.000597312
-0.000923973
-0.00084732
-0.000910717
-0.00109845
-0.000857406
-0.00132998
-0.000754648
-0.0015095
-0.000600633
-0.00159245
-0.000408586
-0.00152856
-0.000212064
-0.00127975
-6.02811e-05
-0.000848037
-0.000293041
-9.09748e-06
0.000175312
-3.29457e-05
0.000447062
-6.67484e-05
0.000646912
-0.000106015
0.000785853
-0.000147244
0.000876125
-0.00018805
0.000929081
-0.000227044
0.00095396
-0.000263649
0.000957446
-0.000297895
0.000943793
-0.000330249
0.000915236
-0.000361478
0.000872512
-0.000392547
0.000815343
-0.000424525
0.00074283
-0.000458514
0.000653746
-0.000495562
0.000546717
-0.00053653
0.000420297
-0.000581945
0.000273062
-0.000631795
0.000103621
-0.000684968
-8.92293e-05
-0.000739041
-0.000306239
-0.000789424
-0.000546929
-0.000828682
-0.000808062
-0.000846022
-0.00108111
-0.000827636
-0.00134837
-0.000759032
-0.0015781
-0.000630795
-0.00172069
-0.000448375
-0.00171098
-0.000242811
-0.00148532
-7.1925e-05
-0.00101892
-0.000364966
-8.8405e-06
0.000184153
-3.16803e-05
0.000469901
-6.27766e-05
0.000678008
-9.70067e-05
0.000820084
-0.000130715
0.000909834
-0.000161687
0.000960052
-0.000188874
0.000981147
-0.000212103
0.000980675
-0.000231814
0.000963505
-0.000248882
0.000932304
-0.000264475
0.000888106
-0.000279963
0.00083083
-0.000296834
0.000759701
-0.00031664
0.000673553
-0.000340937
0.000571014
-0.000371133
0.000450494
-0.000408423
0.000310352
-0.00045356
0.000148758
-0.00050651
-3.62797e-05
-0.000566025
-0.000246723
-0.000628909
-0.000484045
-0.000689037
-0.000747934
-0.00073626
-0.00103389
-0.000755714
-0.00132892
-0.000728798
-0.00160502
-0.000638058
-0.00181143
-0.000478244
-0.00187079
-0.000272847
-0.00169071
-8.50309e-05
-0.00120674
-0.000449996
-9.68609e-06
0.000193839
-3.33903e-05
0.000493606
-6.32415e-05
0.00070786
-9.29694e-05
0.000849811
-0.000118741
0.000935605
-0.000138715
0.000980026
-0.000152441
0.000994873
-0.000160371
0.000988604
-0.000163522
0.000966657
-0.000163276
0.000932058
-0.000161249
0.000886079
-0.000159214
0.000828795
-0.000159041
0.000759528
-0.000162629
0.000677141
-0.000172036
0.000580421
-0.000189005
0.000467463
-0.000215306
0.000336653
-0.000252366
0.000185818
-0.000301059
1.24134e-05
-0.000361372
-0.00018641
-0.000431741
-0.000413676
-0.000507984
-0.00067169
-0.000581785
-0.000960087
-0.000638955
-0.00127175
-0.000658619
-0.00158535
-0.000616039
-0.00185401
-0.000493226
-0.00199361
-0.000300372
-0.00188357
-9.98779e-05
-0.00140723
-0.000549874
-1.24784e-05
0.000206317
-4.00816e-05
0.000521209
-7.09279e-05
0.000738706
-9.69824e-05
0.000875866
-0.000114364
0.000952986
-0.000121992
0.000987655
-0.000120403
0.000993284
-0.000110977
0.000979178
-9.55077e-05
0.000951188
-7.59883e-05
0.000912539
-5.45201e-05
0.00086461
-3.32642e-05
0.000807539
-1.44466e-05
0.00074071
-3.49629e-07
0.000663044
7.10502e-06
0.000572966
5.43155e-06
0.000469136
-7.36238e-06
0.000349447
-3.32065e-05
0.000211662
-7.3816e-05
5.3023e-05
-0.000130291
-0.000129936
-0.000202714
-0.000341253
-0.000289209
-0.000585196
-0.000384251
-0.000865045
-0.000476128
-0.00117987
-0.000544157
-0.00151732
-0.000558413
-0.00183975
-0.000487621
-0.0020644
-0.000323004
-0.00204819
-0.000116982
-0.00161325
-0.000666856
-1.86596e-05
0.000224977
-5.47286e-05
0.000557278
-8.94537e-05
0.000773431
-0.000112519
0.000898931
-0.000120499
0.000960967
-0.000113768
0.000980923
-9.44083e-05
0.000973925
-6.51058e-05
0.000949876
-2.86383e-05
0.00091472
1.22986e-05
0.000871602
5.5131e-05
0.000821778
9.73526e-05
0.000765317
0.000136524
0.000701539
0.000170257
0.000629311
0.000196035
0.000547188
0.000211601
0.00045357
0.000214549
0.000346499
0.000202557
0.000223654
0.000173395
8.21845e-05
0.000124982
-8.15226e-05
5.57075e-05
-0.000271978
-3.4905e-05
-0.000494583
-0.00014471
-0.00075524
-0.000266061
-0.00105852
-0.000381114
-0.00140227
-0.00045828
-0.00176258
-0.000454406
-0.00206827
-0.000337209
-0.00216538
-0.000137003
-0.00181346
-0.000803858
-3.07515e-05
0.000255728
-8.16485e-05
0.000608175
-0.00012307
0.000814852
-0.00014258
0.000918441
-0.000138502
0.000956889
-0.00011381
0.000956231
-7.28951e-05
0.000933009
-2.01552e-05
0.000897136
4.047e-05
0.000854095
0.000105552
0.00080652
0.000172062
0.000755269
0.00023725
0.000700129
0.000298533
0.000640256
0.000353411
0.000574432
0.000399405
0.000501194
0.000434062
0.000418914
0.000454868
0.000325692
0.000459231
0.000219291
0.000444441
9.6975e-05
0.000407632
-4.4714e-05
0.00034592
-0.000210265
0.000256676
-0.000405339
0.000138683
-0.000637247
-5.23513e-06
-0.000914601
-0.000163583
-0.00124392
-0.000306839
-0.00161933
-0.000383932
-0.00199118
-0.000336988
-0.00221233
-0.000160128
-0.00199032
-0.000963986
-5.30984e-05
0.000308827
-0.000126472
0.000681549
-0.000175073
0.000863452
-0.000186646
0.000930015
-0.000164005
0.000934248
-0.000114489
0.000906715
-4.56879e-05
0.000864208
3.59302e-05
0.000815518
0.000125209
0.000764816
0.000218064
0.000713664
0.000311169
0.000662164
0.000401678
0.000609621
0.000487017
0.000554917
0.000564747
0.000496703
0.000632447
0.000433493
0.000687669
0.000363693
0.000727834
0.000285527
0.000750166
0.000196959
0.000751591
9.55502e-05
0.000728602
-2.17255e-05
0.000677345
-0.000159008
0.000593425
-0.000321419
0.00047257
-0.000516391
0.00031236
-0.000754391
0.000117476
-0.00104904
-9.08781e-05
-0.00141097
-0.000261433
-0.00182062
-0.000311136
-0.00216263
-0.000184246
-0.00211721
-0.00114823
-9.25803e-05
0.000401407
-0.000193924
0.000782892
-0.000241601
0.00091113
-0.000231474
0.000919887
-0.000175919
0.000878693
-8.89094e-05
0.000819706
1.80408e-05
0.000757258
0.000136414
0.000697144
0.000260141
0.000641089
0.000384867
0.000588939
0.000507325
0.000539706
0.000624885
0.000492061
0.000735245
0.000444556
0.000836228
0.00039572
0.000925637
0.000344084
0.00100116
0.000288166
0.00106028
0.000226407
0.00110015
0.000157093
0.00111746
7.82419e-05
0.00110821
-1.24766e-05
0.00106795
-0.000118752
0.000990985
-0.000244451
0.000870786
-0.000396193
0.000700606
-0.000584212
0.000476703
-0.000825132
0.000208374
-0.00114265
-6.1045e-05
-0.00155121
-0.000238124
-0.00198555
-0.00020179
-0.00215354
-0.00135002
-0.000157359
0.000558766
-0.000276114
0.000901647
-0.000291198
0.000926215
-0.000226276
0.000854965
-0.000110661
0.000763078
3.36571e-05
0.000675387
0.000192048
0.000598867
0.00035528
0.000533913
0.000517651
0.000478719
0.000675579
0.000431011
0.000826656
0.000388628
0.000969061
0.000349656
0.0011012
0.00031242
0.00122148
0.00027544
0.00132818
0.000237384
0.00141934
0.000197006
0.00149267
0.000153077
0.00154544
0.000104315
0.00157435
4.93317e-05
0.00157526
-1.33807e-05
0.00154336
-8.68552e-05
0.0014723
-0.000173389
0.00135421
-0.000278107
0.00117931
-0.00040931
0.000936643
-0.000582464
0.000620281
-0.000826283
0.00025164
-0.00118256
-7.66544e-05
-0.00165725
-0.000193203
-0.002037
-0.00154323
-0.000243877
0.000802643
-0.000303296
0.000961066
-0.000204304
0.000827223
-2.46451e-05
0.000675306
0.000186842
0.000551591
0.000406199
0.00045603
0.000621597
0.000383469
0.000827405
0.000328104
0.00102122
0.0002849
0.00120217
0.000250067
0.00136993
0.000220865
0.00152431
0.000195281
0.00166494
0.000171787
0.0017912
0.000149181
0.0019021
0.000126477
0.00199628
0.000102827
0.00207191
7.74553e-05
0.00212661
4.96073e-05
0.00215741
1.85368e-05
0.00216083
-1.67979e-05
0.0021317
-5.77276e-05
0.00206404
-0.000105732
0.00194972
-0.000163781
0.00177753
-0.000237126
0.00153172
-0.00033665
0.00119192
-0.000486488
0.000747073
-0.000737715
0.000254199
-0.00116438
-8.08157e-05
-0.00170198
-0.00162404
-0.000194457
0.0009971
1.79284e-05
0.00074868
0.000372674
0.000472478
0.000713871
0.000334109
0.00102009
0.00024537
0.00129105
0.000185072
0.00153006
0.000144462
0.00174142
0.000116739
0.00192929
9.70344e-05
0.00209705
8.23084e-05
0.00224722
7.06958e-05
0.0023815
6.09957e-05
0.00250089
5.23939e-05
0.00260576
4.43132e-05
0.00269592
3.63233e-05
0.00277066
2.80845e-05
0.0028288
1.93102e-05
0.00286863
9.78161e-06
0.00288759
-4.26686e-07
0.00288386
-1.30672e-05
0.00285258
-2.64456e-05
0.00278922
-4.23758e-05
0.00268697
-6.15316e-05
0.00253565
-8.5799e-05
0.00231852
-0.000119525
0.00200624
-0.000174205
0.00155161
-0.000283087
0.000927432
-0.000540197
0.000263851
-0.0010384
-0.00136019
0.0009971
0.00174578
0.00221826
0.00255237
0.00279774
0.00298281
0.00312727
0.00324401
0.00334104
0.00342335
0.00349405
0.00355504
0.00360744
0.00365175
0.00368808
0.00371616
0.00373547
0.00374525
0.00374482
0.00373176
0.00370531
0.00366294
0.0036014
0.00351561
0.00339608
0.00322188
0.00293879
0.00239859
0.00136019
)
;

boundaryField
{
    movingWall
    {
        type            calculated;
        value           uniform 0;
    }
    fixedWalls
    {
        type            calculated;
        value           uniform 0;
    }
    frontAndBack
    {
        type            empty;
        value           nonuniform 0();
    }
}


// ************************************************************************* //
