/*--------------------------------*- C++ -*----------------------------------*\
  =========                 |
  \\      /  F ield         | OpenFOAM: The Open Source CFD Toolbox
   \\    /   O peration     | Website:  https://openfoam.org
    \\  /    A nd           | Version:  7
     \\/     M anipulation  |
\*---------------------------------------------------------------------------*/
FoamFile
{
    version     2.0;
    format      ascii;
    class       volVectorField;
    location    "8.9";
    object      U;
}
// * * * * * * * * * * * * * * * * * * * * * * * * * * * * * * * * * * * * * //

dimensions      [0 1 -1 0 0 0 0];

internalField   nonuniform List<vector> 
900
(
(0.000163867 -0.000162665 0)
(0.000290748 -7.02643e-05 0)
(-3.16676e-05 9.81885e-05 0)
(-0.000812246 0.000246522 0)
(-0.00195888 0.00035385 0)
(-0.00336678 0.000422884 0)
(-0.00494148 0.000462972 0)
(-0.00660546 0.000482296 0)
(-0.00829475 0.000485438 0)
(-0.00995137 0.00047348 0)
(-0.0115167 0.000444979 0)
(-0.0129274 0.000397197 0)
(-0.0141148 0.000327361 0)
(-0.0150068 0.000233865 0)
(-0.0155336 0.000117337 0)
(-0.0156349 -1.86215e-05 0)
(-0.0152686 -0.000167428 0)
(-0.0144201 -0.000318473 0)
(-0.01311 -0.000458698 0)
(-0.0113989 -0.000573722 0)
(-0.00938781 -0.000649673 0)
(-0.00721258 -0.000675372 0)
(-0.00503342 -0.000644382 0)
(-0.00301881 -0.000556502 0)
(-0.00132607 -0.000418554 0)
(-8.16883e-05 -0.000245103 0)
(0.000634395 -5.77653e-05 0)
(0.000811159 0.00011723 0)
(0.000555918 0.000223247 0)
(0.000171607 0.000170476 0)
(7.88325e-05 -0.000298023 0)
(-0.000300331 0.000297851 0)
(-0.00173468 0.0011362 0)
(-0.00413779 0.00189077 0)
(-0.00734477 0.00247113 0)
(-0.0111526 0.00287002 0)
(-0.0153557 0.00311033 0)
(-0.0197667 0.00321736 0)
(-0.0242158 0.0032069 0)
(-0.0285417 0.00308318 0)
(-0.0325821 0.00284161 0)
(-0.0361694 0.00247371 0)
(-0.0391304 0.00197275 0)
(-0.0412938 0.00133919 0)
(-0.0425021 0.00058522 0)
(-0.0426285 -0.000262143 0)
(-0.0415933 -0.00115931 0)
(-0.0393823 -0.00204776 0)
(-0.0360616 -0.00285797 0)
(-0.0317846 -0.00351608 0)
(-0.02679 -0.00395292 0)
(-0.0213901 -0.00411426 0)
(-0.0159471 -0.00397046 0)
(-0.0108393 -0.00352396 0)
(-0.00642043 -0.00281337 0)
(-0.00297488 -0.00191503 0)
(-0.000673398 -0.000942267 0)
(0.000454361 -4.56823e-05 0)
(0.00059642 0.000561011 0)
(0.000231274 0.000553344 0)
(-0.000106012 2.95419e-05 0)
(-0.00124492 0.00175479 0)
(-0.00404152 0.00380587 0)
(-0.00817015 0.00563812 0)
(-0.0133741 0.00707273 0)
(-0.0193851 0.0080783 0)
(-0.0259231 0.00868487 0)
(-0.0327222 0.00893393 0)
(-0.0395318 0.00885322 0)
(-0.0461083 0.00845032 0)
(-0.0522064 0.00771733 0)
(-0.0575759 0.00664121 0)
(-0.0619656 0.00521612 0)
(-0.0651336 0.0034554 0)
(-0.0668645 0.00140133 0)
(-0.0669898 -0.000868553 0)
(-0.0654107 -0.00323902 0)
(-0.0621196 -0.00556259 0)
(-0.0572171 -0.00766843 0)
(-0.0509196 -0.00937822 0)
(-0.043558 -0.0105269 0)
(-0.0355615 -0.010986 0)
(-0.0274282 -0.0106858 0)
(-0.0196819 -0.00963353 0)
(-0.012818 -0.00792407 0)
(-0.00724373 -0.00574236 0)
(-0.00321975 -0.00336164 0)
(-0.00081118 -0.00114309 0)
(0.000164983 0.0004676 0)
(0.000167674 0.000859831 0)
(-0.000302152 0.000912223 0)
(-0.00226462 0.00440245 0)
(-0.00651919 0.00806791 0)
(-0.0124217 0.0112562 0)
(-0.0195892 0.013739 0)
(-0.0276874 0.0154751 0)
(-0.0363757 0.0165051 0)
(-0.0453295 0.0168854 0)
(-0.0542389 0.016653 0)
(-0.0627985 0.0158172 0)
(-0.0707005 0.0143668 0)
(-0.0776329 0.0122869 0)
(-0.0832861 0.00957846 0)
(-0.0873662 0.00627733 0)
(-0.0896143 0.00246902 0)
(-0.0898299 -0.00170195 0)
(-0.0878953 -0.006031 0)
(-0.0837997 -0.01026 0)
(-0.0776572 -0.014094 0)
(-0.069718 -0.0172269 0)
(-0.0603684 -0.0193747 0)
(-0.0501163 -0.0203138 0)
(-0.0395604 -0.0199191 0)
(-0.0293421 -0.0181956 0)
(-0.0200833 -0.015299 0)
(-0.0123146 -0.0115413 0)
(-0.00640293 -0.00738395 0)
(-0.00248632 -0.00342357 0)
(-0.000443033 -0.000374538 0)
(7.08653e-05 0.000877059 0)
(-0.000487654 0.00234917 0)
(-0.00326582 0.00826983 0)
(-0.00898147 0.0139393 0)
(-0.0166424 0.0187108 0)
(-0.0257198 0.0223697 0)
(-0.0358072 0.0248978 0)
(-0.0465094 0.0263601 0)
(-0.0574557 0.0268314 0)
(-0.0682934 0.0263575 0)
(-0.078674 0.0249478 0)
(-0.0882451 0.0225876 0)
(-0.0966502 0.0192618 0)
(-0.103536 0.0149821 0)
(-0.108568 0.00981217 0)
(-0.11145 0.00388757 0)
(-0.111945 -0.00257253 0)
(-0.109908 -0.00926442 0)
(-0.105304 -0.0158081 0)
(-0.0982347 -0.0217705 0)
(-0.0889518 -0.0266997 0)
(-0.0778652 -0.0301711 0)
(-0.0655337 -0.0318419 0)
(-0.0526378 -0.0315075 0)
(-0.0399307 -0.0291518 0)
(-0.0281691 -0.0249819 0)
(-0.0180296 -0.0194392 0)
(-0.0100181 -0.0131878 0)
(-0.0043864 -0.00708068 0)
(-0.00111475 -0.00211545 0)
(-2.56027e-05 0.000547676 0)
(-0.000657259 0.00431293 0)
(-0.00420919 0.0133274 0)
(-0.0113289 0.0213929 0)
(-0.0206793 0.0279639 0)
(-0.0315807 0.0329058 0)
(-0.0435525 0.0362645 0)
(-0.0561491 0.038151 0)
(-0.0689636 0.0386675 0)
(-0.0816143 0.0378711 0)
(-0.0937247 0.035771 0)
(-0.104914 0.0323482 0)
(-0.114795 0.027587 0)
(-0.122983 0.0215094 0)
(-0.129107 0.0142071 0)
(-0.132833 0.00586519 0)
(-0.133881 -0.00322244 0)
(-0.132059 -0.0126515 0)
(-0.127283 -0.0219155 0)
(-0.11961 -0.0304331 0)
(-0.10926 -0.0375888 0)
(-0.0966348 -0.0427912 0)
(-0.0823184 -0.0455445 0)
(-0.0670606 -0.0455276 0)
(-0.051731 -0.0426687 0)
(-0.0372437 -0.0372018 0)
(-0.0244586 -0.0296899 0)
(-0.0140682 -0.0210091 0)
(-0.00648404 -0.012293 0)
(-0.00182739 -0.00484935 0)
(-0.000115586 -0.000136803 0)
(-0.000810242 0.00676445 0)
(-0.00507454 0.0195034 0)
(-0.0134989 0.0303427 0)
(-0.0244249 0.0389192 0)
(-0.0370288 0.0452418 0)
(-0.0507596 0.0494631 0)
(-0.0651269 0.0517658 0)
(-0.0796968 0.0522926 0)
(-0.0940704 0.0511167 0)
(-0.107857 0.0482483 0)
(-0.120661 0.0436623 0)
(-0.132078 0.0373393 0)
(-0.141697 0.0293074 0)
(-0.149119 0.0196793 0)
(-0.153965 0.0086825 0)
(-0.155902 -0.00332307 0)
(-0.154671 -0.0158391 0)
(-0.150111 -0.028235 0)
(-0.142202 -0.0397749 0)
(-0.131093 -0.0496622 0)
(-0.117142 -0.0571071 0)
(-0.100929 -0.0614165 0)
(-0.0832566 -0.062099 0)
(-0.0651158 -0.0589735 0)
(-0.0476051 -0.0522578 0)
(-0.0318161 -0.0426148 0)
(-0.0186875 -0.031139 0)
(-0.00884895 -0.0192758 0)
(-0.00260724 -0.00869041 0)
(-0.000204224 -0.0011931 0)
(-0.00094547 0.00965657 0)
(-0.00584522 0.026698 0)
(-0.0154405 0.0406623 0)
(-0.0277884 0.0514389 0)
(-0.0419363 0.0592369 0)
(-0.0572705 0.0643571 0)
(-0.0732641 0.0670805 0)
(-0.0894657 0.0676053 0)
(-0.10547 0.0660281 0)
(-0.120884 0.0623611 0)
(-0.13531 0.0565714 0)
(-0.148335 0.0486302 0)
(-0.159537 0.0385627 0)
(-0.168484 0.0264908 0)
(-0.174755 0.0126687 0)
(-0.177954 -0.00249376 0)
(-0.177735 -0.0184176 0)
(-0.173836 -0.0343595 0)
(-0.166123 -0.0494289 0)
(-0.154638 -0.0626322 0)
(-0.139648 -0.0729473 0)
(-0.12169 -0.0794288 0)
(-0.101595 -0.0813448 0)
(-0.0804646 -0.0783272 0)
(-0.0596059 -0.0705091 0)
(-0.0403939 -0.0586124 0)
(-0.0240861 -0.0439483 0)
(-0.0116056 -0.0283142 0)
(-0.0035058 -0.0138024 0)
(-0.00030165 -0.00266172 0)
(-0.00106024 0.0129337 0)
(-0.00650245 0.0347867 0)
(-0.0171033 0.0521909 0)
(-0.0306813 0.0653479 0)
(-0.0461752 0.0747156 0)
(-0.0629201 0.0807808 0)
(-0.0803615 0.0839482 0)
(-0.0980395 0.0844874 0)
(-0.115552 0.0825265 0)
(-0.132517 0.0780822 0)
(-0.148544 0.0711111 0)
(-0.163225 0.0615678 0)
(-0.176131 0.0494623 0)
(-0.18681 0.0349093 0)
(-0.194797 0.0181682 0)
(-0.199627 -0.000324799 0)
(-0.200859 -0.0199333 0)
(-0.198111 -0.0398199 0)
(-0.191103 -0.0589473 0)
(-0.179727 -0.0761167 0)
(-0.164111 -0.0900414 0)
(-0.144696 -0.0994649 0)
(-0.122288 -0.103328 0)
(-0.098077 -0.100971 0)
(-0.0735801 -0.0923406 0)
(-0.0505039 -0.0781453 0)
(-0.0305079 -0.0598943 0)
(-0.0149058 -0.039781 0)
(-0.00458658 -0.0204184 0)
(-0.000419908 -0.00461535 0)
(-0.00115068 0.0165295 0)
(-0.00702507 0.0436197 0)
(-0.0184351 0.0647336 0)
(-0.0330135 0.0804323 0)
(-0.0496145 0.0914624 0)
(-0.0675336 0.0985281 0)
(-0.0861984 0.102182 0)
(-0.105149 0.102779 0)
(-0.123995 0.10049 0)
(-0.142373 0.0953391 0)
(-0.159914 0.0872688 0)
(-0.176227 0.0762102 0)
(-0.190885 0.0621444 0)
(-0.203428 0.0451589 0)
(-0.213355 0.0254941 0)
(-0.220138 0.00358326 0)
(-0.22324 -0.0199147 0)
(-0.222148 -0.0440929 0)
(-0.216419 -0.0677886 0)
(-0.205753 -0.0896028 0)
(-0.190088 -0.107963 0)
(-0.169696 -0.121246 0)
(-0.145289 -0.127968 0)
(-0.118079 -0.127048 0)
(-0.0897691 -0.118102 0)
(-0.062426 -0.101705 0)
(-0.038198 -0.079509 0)
(-0.0189117 -0.0541408 0)
(-0.00591878 -0.0288495 0)
(-0.000571895 -0.0071629 0)
(-0.00121247 0.0203659 0)
(-0.00739174 0.0530215 0)
(-0.0193849 0.0780616 0)
(-0.0346981 0.096439 0)
(-0.0521252 0.109218 0)
(-0.0709343 0.117344 0)
(-0.0905426 0.121539 0)
(-0.110496 0.122261 0)
(-0.130426 0.119729 0)
(-0.149994 0.11398 0)
(-0.168864 0.104944 0)
(-0.18667 0.0925197 0)
(-0.203008 0.0766472 0)
(-0.217421 0.0573668 0)
(-0.229391 0.0348733 0)
(-0.238344 0.00956423 0)
(-0.243661 -0.0179157 0)
(-0.244703 -0.0466299 0)
(-0.240855 -0.0753269 0)
(-0.231605 -0.102432 0)
(-0.216642 -0.126088 0)
(-0.195994 -0.144262 0)
(-0.170175 -0.154955 0)
(-0.140319 -0.156513 0)
(-0.108239 -0.148028 0)
(-0.0763529 -0.129753 0)
(-0.0473725 -0.103369 0)
(-0.0237828 -0.0719418 0)
(-0.00757423 -0.0394868 0)
(-0.000771339 -0.0104513 0)
(-0.00124179 0.0243532 0)
(-0.00758416 0.0627933 0)
(-0.0199095 0.0919147 0)
(-0.0356594 0.113077 0)
(-0.0535921 0.127676 0)
(-0.0729579 0.13692 0)
(-0.0931697 0.141714 0)
(-0.113785 0.142633 0)
(-0.134457 0.139958 0)
(-0.154885 0.133745 0)
(-0.17477 0.123912 0)
(-0.19379 0.110322 0)
(-0.211575 0.0928629 0)
(-0.227693 0.0715114 0)
(-0.241638 0.0463923 0)
(-0.252816 0.0178349 0)
(-0.260554 -0.0135696 0)
(-0.264115 -0.0469059 0)
(-0.262727 -0.0808875 0)
(-0.255653 -0.113814 0)
(-0.2423 -0.143574 0)
(-0.222367 -0.167722 0)
(-0.196053 -0.183667 0)
(-0.164264 -0.189024 0)
(-0.128792 -0.182126 0)
(-0.0923265 -0.162634 0)
(-0.0581843 -0.132042 0)
(-0.0296641 -0.0937935 0)
(-0.00962545 -0.052797 0)
(-0.00103319 -0.0146663 0)
(-0.00123619 0.0283932 0)
(-0.00759093 0.0727182 0)
(-0.019981 0.106007 0)
(-0.0358457 0.13002 0)
(-0.0539301 0.14649 0)
(-0.0734737 0.156892 0)
(-0.093889 0.162331 0)
(-0.114746 0.163513 0)
(-0.135726 0.160792 0)
(-0.156566 0.154252 0)
(-0.177015 0.143804 0)
(-0.196805 0.129278 0)
(-0.215622 0.110503 0)
(-0.233083 0.0873808 0)
(-0.248721 0.0599486 0)
(-0.261967 0.0284389 0)
(-0.272137 -0.00665142 0)
(-0.278437 -0.0444869 0)
(-0.279981 -0.0838112 0)
(-0.275825 -0.122877 0)
(-0.265076 -0.159392 0)
(-0.247045 -0.190536 0)
(-0.221489 -0.213102 0)
(-0.188909 -0.22384 0)
(-0.150866 -0.22006 0)
(-0.110163 -0.200464 0)
(-0.0706809 -0.166007 0)
(-0.0366695 -0.120327 0)
(-0.0121435 -0.0693112 0)
(-0.00137412 -0.0200331 0)
(-0.00119554 0.0323835 0)
(-0.00741171 0.0825708 0)
(-0.019596 0.12004 0)
(-0.0352432 0.146923 0)
(-0.0531032 0.165276 0)
(-0.0724098 0.176847 0)
(-0.092576 0.182948 0)
(-0.113185 0.18443 0)
(-0.133946 0.181735 0)
(-0.154637 0.174987 0)
(-0.175065 0.164099 0)
(-0.195024 0.148871 0)
(-0.214273 0.129079 0)
(-0.232507 0.104547 0)
(-0.249334 0.0752124 0)
(-0.26425 0.041191 0)
(-0.276619 0.00284912 0)
(-0.285652 -0.0391117 0)
(-0.290402 -0.0835444 0)
(-0.289778 -0.128757 0)
(-0.282607 -0.172392 0)
(-0.267783 -0.211356 0)
(-0.24452 -0.24187 0)
(-0.212723 -0.259745 0)
(-0.17346 -0.261015 0)
(-0.129374 -0.242985 0)
(-0.0847512 -0.205541 0)
(-0.0448611 -0.152132 0)
(-0.0151942 -0.0896045 0)
(-0.00181303 -0.0268153 0)
(-0.00112286 0.0362252 0)
(-0.00706135 0.0921316 0)
(-0.0187853 0.133714 0)
(-0.0338906 0.163426 0)
(-0.051145 0.183628 0)
(-0.0697784 0.196332 0)
(-0.0892044 0.203067 0)
(-0.109019 0.20484 0)
(-0.12896 0.202198 0)
(-0.14885 0.19532 0)
(-0.168556 0.184134 0)
(-0.187949 0.168423 0)
(-0.206875 0.147919 0)
(-0.22513 0.122371 0)
(-0.24243 0.09162 0)
(-0.258384 0.0556546 0)
(-0.272459 0.0146853 0)
(-0.283939 -0.0307652 0)
(-0.291899 -0.0797392 0)
(-0.295179 -0.130721 0)
(-0.292397 -0.181434 0)
(-0.282053 -0.22868 0)
(-0.262767 -0.268245 0)
(-0.233685 -0.29503 0)
(-0.19509 -0.303609 0)
(-0.149095 -0.289421 0)
(-0.100066 -0.250579 0)
(-0.0542203 -0.189673 0)
(-0.018833 -0.114264 0)
(-0.00237141 -0.0353124 0)
(-0.00102505 0.0398318 0)
(-0.00657392 0.101206 0)
(-0.0176225 0.146753 0)
(-0.0318936 0.179187 0)
(-0.0481778 0.201136 0)
(-0.0657001 0.214875 0)
(-0.0838758 0.222151 0)
(-0.102315 0.224144 0)
(-0.120786 0.221521 0)
(-0.13916 0.214533 0)
(-0.157371 0.203142 0)
(-0.175372 0.18713 0)
(-0.193113 0.166197 0)
(-0.210508 0.140037 0)
(-0.22741 0.108402 0)
(-0.243576 0.071156 0)
(-0.258627 0.0283452 0)
(-0.271983 -0.0197219 0)
(-0.282834 -0.0723435 0)
(-0.290058 -0.128295 0)
(-0.292163 -0.185552 0)
(-0.287348 -0.241031 0)
(-0.273667 -0.290316 0)
(-0.249414 -0.327565 0)
(-0.213826 -0.345856 0)
(-0.168046 -0.338354 0)
(-0.116021 -0.300557 0)
(-0.0646155 -0.233166 0)
(-0.0230979 -0.143842 0)
(-0.00307378 -0.0458546 0)
(-0.000913736 0.0431412 0)
(-0.00600686 0.109645 0)
(-0.0162338 0.158931 0)
(-0.0294389 0.193896 0)
(-0.0444289 0.217411 0)
(-0.0604226 0.232001 0)
(-0.0768404 0.239646 0)
(-0.0933131 0.241713 0)
(-0.109646 0.239003 0)
(-0.125767 0.23186 0)
(-0.14168 0.220297 0)
(-0.157433 0.204116 0)
(-0.173086 0.183005 0)
(-0.188685 0.15662 0)
(-0.204235 0.124643 0)
(-0.219667 0.0868323 0)
(-0.234791 0.0430778 0)
(-0.249215 -0.00653716 0)
(-0.262326 -0.061656 0)
(-0.273144 -0.121388 0)
(-0.280204 -0.184134 0)
(-0.281557 -0.247174 0)
(-0.27481 -0.306211 0)
(-0.257428 -0.354985 0)
(-0.227431 -0.385248 0)
(-0.184563 -0.387664 0)
(-0.131701 -0.354258 0)
(-0.075769 -0.282447 0)
(-0.0280035 -0.178793 0)
(-0.00394897 -0.0587952 0)
(-0.000806291 0.0461289 0)
(-0.00544613 0.117378 0)
(-0.014808 0.1701 0)
(-0.0268068 0.207309 0)
(-0.0402447 0.232101 0)
(-0.0543328 0.24726 0)
(-0.0685075 0.255009 0)
(-0.0824349 0.256917 0)
(-0.0959723 0.25394 0)
(-0.109115 0.246531 0)
(-0.121951 0.234773 0)
(-0.134626 0.218502 0)
(-0.147319 0.197419 0)
(-0.16021 0.171163 0)
(-0.17346 0.139367 0)
(-0.187178 0.101704 0)
(-0.201378 0.0579229 0)
(-0.215932 0.00788897 0)
(-0.230433 -0.0483558 0)
(-0.244105 -0.110356 0)
(-0.255704 -0.177058 0)
(-0.263313 -0.24634 0)
(-0.2643 -0.314384 0)
(-0.255461 -0.374972 0)
(-0.233587 -0.418954 0)
(-0.196694 -0.434576 0)
(-0.145882 -0.409708 0)
(-0.0872317 -0.336812 0)
(-0.0335385 -0.219394 0)
(-0.00503345 -0.0745026 0)
(-0.000728209 0.0488259 0)
(-0.00501491 0.124444 0)
(-0.0136113 0.180229 0)
(-0.0243871 0.219275 0)
(-0.0361013 0.244921 0)
(-0.0479614 0.260241 0)
(-0.0594415 0.26772 0)
(-0.0702713 0.26915 0)
(-0.0803862 0.265657 0)
(-0.0898692 0.257814 0)
(-0.0989057 0.245788 0)
(-0.107749 0.229468 0)
(-0.116695 0.20858 0)
(-0.126059 0.182765 0)
(-0.136152 0.151632 0)
(-0.147254 0.11479 0)
(-0.159577 0.0718693 0)
(-0.173216 0.022547 0)
(-0.188035 -0.0333911 0)
(-0.203562 -0.0959751 0)
(-0.218842 -0.164758 0)
(-0.232198 -0.238386 0)
(-0.241037 -0.313872 0)
(-0.241778 -0.38558 0)
(-0.230167 -0.44413 0)
(-0.202374 -0.475841 0)
(-0.157075 -0.464149 0)
(-0.0983712 -0.394875 0)
(-0.0396712 -0.265654 0)
(-0.00637947 -0.0933565 0)
(-0.000718482 0.0513428 0)
(-0.00489005 0.13103 0)
(-0.0130106 0.189434 0)
(-0.0226986 0.229756 0)
(-0.0326143 0.255663 0)
(-0.0419774 0.270576 0)
(-0.0503419 0.277291 0)
(-0.0575477 0.277838 0)
(-0.0636485 0.273519 0)
(-0.0688448 0.265037 0)
(-0.0734368 0.252645 0)
(-0.077793 0.236293 0)
(-0.0823253 0.21574 0)
(-0.0874714 0.190643 0)
(-0.0936808 0.160609 0)
(-0.101382 0.125195 0)
(-0.110957 0.0839577 0)
(-0.122701 0.0364253 0)
(-0.136741 -0.0178742 0)
(-0.152927 -0.0793589 0)
(-0.170679 -0.148185 0)
(-0.188728 -0.223855 0)
(-0.20481 -0.304474 0)
(-0.215358 -0.385537 0)
(-0.215466 -0.458276 0)
(-0.199604 -0.508016 0)
(-0.163609 -0.514123 0)
(-0.108369 -0.454445 0)
(-0.0463651 -0.317209 0)
(-0.00807157 -0.115758 0)
(-0.000841902 0.0539083 0)
(-0.00533465 0.137536 0)
(-0.013513 0.198025 0)
(-0.0224173 0.238847 0)
(-0.0305436 0.264186 0)
(-0.0371687 0.277938 0)
(-0.0419996 0.283259 0)
(-0.045058 0.282434 0)
(-0.0465725 0.27694 0)
(-0.0468982 0.267597 0)
(-0.046471 0.25474 0)
(-0.0457801 0.23837 0)
(-0.0453482 0.218284 0)
(-0.0457143 0.194154 0)
(-0.0474509 0.165607 0)
(-0.0511035 0.132144 0)
(-0.0571783 0.0932906 0)
(-0.0661465 0.0484638 0)
(-0.0783537 -0.00300148 0)
(-0.0939518 -0.0618261 0)
(-0.112766 -0.128685 0)
(-0.134053 -0.203903 0)
(-0.156129 -0.286797 0)
(-0.175874 -0.374432 0)
(-0.188279 -0.459554 0)
(-0.186576 -0.527811 0)
(-0.163693 -0.555646 0)
(-0.116209 -0.512445 0)
(-0.0535944 -0.373191 0)
(-0.0102553 -0.142163 0)
(-0.00121551 0.0569382 0)
(-0.00675888 0.144643 0)
(-0.0158274 0.206531 0)
(-0.0244065 0.246756 0)
(-0.0307787 0.27039 0)
(-0.0343828 0.281991 0)
(-0.0352007 0.285142 0)
(-0.0335374 0.282387 0)
(-0.0298675 0.27535 0)
(-0.0247437 0.264937 0)
(-0.0187564 0.251539 0)
(-0.0125178 0.235192 0)
(-0.00664989 0.215718 0)
(-0.0017581 0.192802 0)
(0.00147017 0.166048 0)
(0.00240715 0.13499 0)
(0.000481182 0.0990911 0)
(-0.00492862 0.0577109 0)
(-0.0143345 0.0100741 0)
(-0.0281434 -0.0447506 0)
(-0.0465726 -0.107817 0)
(-0.0694419 -0.180124 0)
(-0.0958206 -0.262148 0)
(-0.123426 -0.352748 0)
(-0.147785 -0.446992 0)
(-0.161638 -0.532391 0)
(-0.1554 -0.58444 0)
(-0.120606 -0.564864 0)
(-0.0613264 -0.432053 0)
(-0.0131759 -0.173152 0)
(-0.0020622 0.0611633 0)
(-0.00982575 0.153423 0)
(-0.0209427 0.215705 0)
(-0.0297163 0.253747 0)
(-0.0342489 0.274117 0)
(-0.0343596 0.282299 0)
(-0.0304966 0.282364 0)
(-0.0233822 0.277075 0)
(-0.0138183 0.26814 0)
(-0.00259437 0.256493 0)
(0.00953246 0.242528 0)
(0.0218364 0.226284 0)
(0.0336154 0.207585 0)
(0.0441857 0.186118 0)
(0.0528406 0.161456 0)
(0.0588981 0.133173 0)
(0.0617 0.100688 0)
(0.0605645 0.0633403 0)
(0.0548402 0.0203118 0)
(0.043905 -0.029432 0)
(0.0272088 -0.0871567 0)
(0.00439609 -0.154312 0)
(-0.0244181 -0.232301 0)
(-0.0580684 -0.321739 0)
(-0.0932232 -0.420529 0)
(-0.123098 -0.519583 0)
(-0.136504 -0.596139 0)
(-0.119825 -0.60671 0)
(-0.0693955 -0.491286 0)
(-0.0172029 -0.209496 0)
(-0.00381272 0.0678686 0)
(-0.0156126 0.165448 0)
(-0.0301686 0.226442 0)
(-0.0394315 0.259945 0)
(-0.0415879 0.274947 0)
(-0.0372502 0.27815 0)
(-0.0276141 0.274101 0)
(-0.0139799 0.265679 0)
(0.00244518 0.254558 0)
(0.0206074 0.241597 0)
(0.0395891 0.22712 0)
(0.0585715 0.211123 0)
(0.0767989 0.193397 0)
(0.0935519 0.173609 0)
(0.10812 0.151344 0)
(0.119801 0.126144 0)
(0.127892 0.0974502 0)
(0.131667 0.0646039 0)
(0.130371 0.0267949 0)
(0.123212 -0.0170077 0)
(0.109364 -0.068121 0)
(0.088014 -0.128191 0)
(0.058512 -0.199206 0)
(0.0207965 -0.283199 0)
(-0.0233975 -0.380923 0)
(-0.0688233 -0.488014 0)
(-0.104128 -0.586479 0)
(-0.111279 -0.631929 0)
(-0.07712 -0.5469 0)
(-0.022756 -0.252094 0)
(-0.00728007 0.0793284 0)
(-0.025795 0.182844 0)
(-0.0449281 0.239446 0)
(-0.0539966 0.264889 0)
(-0.0520816 0.271775 0)
(-0.0412997 0.268193 0)
(-0.0239652 0.259004 0)
(-0.00211543 0.24697 0)
(0.0225905 0.233536 0)
(0.048846 0.219345 0)
(0.075609 0.20456 0)
(0.102012 0.189067 0)
(0.127291 0.172593 0)
(0.15074 0.154775 0)
(0.171671 0.135192 0)
(0.189391 0.113382 0)
(0.203191 0.0888127 0)
(0.212313 0.0608683 0)
(0.215931 0.0287989 0)
(0.213111 -0.00834211 0)
(0.202817 -0.0517899 0)
(0.183871 -0.103153 0)
(0.154991 -0.164621 0)
(0.115051 -0.23909 0)
(0.0639044 -0.329707 0)
(0.00428606 -0.437311 0)
(-0.0541245 -0.551586 0)
(-0.0907543 -0.633289 0)
(-0.082438 -0.592596 0)
(-0.029927 -0.301633 0)
(-0.0138684 0.0994957 0)
(-0.0425846 0.207935 0)
(-0.0655684 0.254306 0)
(-0.070949 0.266554 0)
(-0.060708 0.261993 0)
(-0.0395232 0.249848 0)
(-0.011191 0.234793 0)
(0.0214563 0.219056 0)
(0.0563749 0.203564 0)
(0.0921136 0.188559 0)
(0.127615 0.173939 0)
(0.16206 0.159421 0)
(0.194761 0.144643 0)
(0.22509 0.129201 0)
(0.252429 0.112668 0)
(0.276143 0.0946006 0)
(0.295549 0.0745169 0)
(0.30989 0.0518743 0)
(0.318298 0.0260321 0)
(0.31974 -0.00380953 0)
(0.313038 -0.0386867 0)
(0.296756 -0.0800065 0)
(0.269159 -0.12981 0)
(0.228286 -0.191209 0)
(0.172309 -0.268862 0)
(0.100952 -0.368188 0)
(0.0199562 -0.488543 0)
(-0.0509623 -0.602485 0)
(-0.0803895 -0.618906 0)
(-0.0374927 -0.358455 0)
(-0.0254055 0.134977 0)
(-0.0670836 0.240965 0)
(-0.0865982 0.266578 0)
(-0.0781695 0.258936 0)
(-0.050712 0.239849 0)
(-0.0124068 0.218339 0)
(0.0315797 0.197813 0)
(0.0779959 0.179297 0)
(0.124809 0.162831 0)
(0.170761 0.148083 0)
(0.215041 0.134601 0)
(0.257074 0.121912 0)
(0.296392 0.109559 0)
(0.332552 0.0971101 0)
(0.365089 0.0841558 0)
(0.393484 0.0702982 0)
(0.417137 0.0551324 0)
(0.435343 0.0382228 0)
(0.44725 0.0190727 0)
(0.451802 -0.00292927 0)
(0.447767 -0.0285052 0)
(0.433561 -0.0587653 0)
(0.407206 -0.0953598 0)
(0.36622 -0.141025 0)
(0.307531 -0.20065 0)
(0.227958 -0.282489 0)
(0.128009 -0.395582 0)
(0.020827 -0.531029 0)
(-0.0609091 -0.612621 0)
(-0.0408334 -0.421863 0)
(-0.0413198 0.19715 0)
(-0.0902525 0.272554 0)
(-0.0798343 0.259238 0)
(-0.0361314 0.226466 0)
(0.0219091 0.193741 0)
(0.0845543 0.165814 0)
(0.147205 0.143162 0)
(0.207635 0.124954 0)
(0.264836 0.11014 0)
(0.318415 0.0977955 0)
(0.368247 0.0871769 0)
(0.41428 0.0776885 0)
(0.456448 0.0688468 0)
(0.494617 0.0602505 0)
(0.528562 0.0515552 0)
(0.557952 0.0424534 0)
(0.582331 0.0326542 0)
(0.601115 0.0218633 0)
(0.613534 0.00975685 0)
(0.618678 -0.00407 0)
(0.615364 -0.0200098 0)
(0.602009 -0.0387776 0)
(0.576648 -0.0614692 0)
(0.536636 -0.0900145 0)
(0.478257 -0.128283 0)
(0.396212 -0.184464 0)
(0.285181 -0.273848 0)
(0.14605 -0.410557 0)
(-0.00334871 -0.554031 0)
(-0.0253749 -0.477538 0)
(-0.034161 0.29367 0)
(-0.047988 0.27249 0)
(0.0536161 0.199462 0)
(0.156697 0.149682 0)
(0.249718 0.114955 0)
(0.332118 0.0901539 0)
(0.404799 0.0725741 0)
(0.468924 0.0599842 0)
(0.525741 0.0506789 0)
(0.576361 0.0435124 0)
(0.621641 0.0377347 0)
(0.662183 0.032837 0)
(0.698368 0.0284579 0)
(0.730386 0.02433 0)
(0.758259 0.0202458 0)
(0.78186 0.0160356 0)
(0.800918 0.0115506 0)
(0.815028 0.0066538 0)
(0.82357 0.00120214 0)
(0.825936 -0.00487148 0)
(0.821178 -0.0118964 0)
(0.808002 -0.0201451 0)
(0.784799 -0.0300833 0)
(0.74926 -0.0426446 0)
(0.697788 -0.0598793 0)
(0.624284 -0.0868755 0)
(0.518478 -0.13716 0)
(0.365146 -0.240261 0)
(0.14414 -0.406969 0)
(0.0588711 -0.458304 0)
(0.303198 0.180891 0)
(0.382371 0.144205 0)
(0.560519 0.0910503 0)
(0.686248 0.0589343 0)
(0.768977 0.0393419 0)
(0.828721 0.0268899 0)
(0.874818 0.0190118 0)
(0.91161 0.0140292 0)
(0.94179 0.0107956 0)
(0.967156 0.0085982 0)
(0.988845 0.00701362 0)
(1.00755 0.00578744 0)
(1.02369 0.0047615 0)
(1.03747 0.0038338 0)
(1.04898 0.00293539 0)
(1.05819 0.00201667 0)
(1.06498 0.00103795 0)
(1.06918 -3.07785e-05 0)
(1.07055 -0.0012273 0)
(1.06872 -0.002463 0)
(1.06318 -0.00393139 0)
(1.05345 -0.0056699 0)
(1.03875 -0.00775467 0)
(1.0179 -0.0103938 0)
(0.988847 -0.0140872 0)
(0.947461 -0.0201794 0)
(0.883938 -0.032564 0)
(0.776333 -0.0637426 0)
(0.544817 -0.13946 0)
(0.38249 -0.201735 0)
)
;

boundaryField
{
    movingWall
    {
        type            fixedValue;
        value           uniform (1.2 0 0);
    }
    fixedWalls
    {
        type            noSlip;
    }
    frontAndBack
    {
        type            empty;
    }
}


// ************************************************************************* //
