/*--------------------------------*- C++ -*----------------------------------*\
  =========                 |
  \\      /  F ield         | OpenFOAM: The Open Source CFD Toolbox
   \\    /   O peration     | Website:  https://openfoam.org
    \\  /    A nd           | Version:  7
     \\/     M anipulation  |
\*---------------------------------------------------------------------------*/
FoamFile
{
    version     2.0;
    format      ascii;
    class       volVectorField;
    location    "8.1";
    object      U;
}
// * * * * * * * * * * * * * * * * * * * * * * * * * * * * * * * * * * * * * //

dimensions      [0 1 -1 0 0 0 0];

internalField   nonuniform List<vector> 
900
(
(0.000160967 -0.000159898 0)
(0.000283415 -6.76219e-05 0)
(-3.94466e-05 9.88846e-05 0)
(-0.000814797 0.000245301 0)
(-0.00195085 0.000351066 0)
(-0.00334416 0.000418952 0)
(-0.00490132 0.000458213 0)
(-0.00654577 0.000476935 0)
(-0.00821434 0.000479666 0)
(-0.0098499 0.000467517 0)
(-0.0113948 0.000439115 0)
(-0.0127869 0.000391798 0)
(-0.0139586 0.00032285 0)
(-0.0148393 0.000230684 0)
(-0.0153603 0.000115887 0)
(-0.0154622 -1.80383e-05 0)
(-0.0151034 -0.000164661 0)
(-0.0142691 -0.000313588 0)
(-0.0129793 -0.000452001 0)
(-0.0112932 -0.000565751 0)
(-0.00930977 -0.000641156 0)
(-0.00716262 -0.000667148 0)
(-0.00500949 -0.000637294 0)
(-0.0030166 -0.000551277 0)
(-0.00133948 -0.000415673 0)
(-0.000103406 -0.000244656 0)
(0.000611392 -5.96158e-05 0)
(0.00079338 0.000113665 0)
(0.000547234 0.000219266 0)
(0.000169657 0.000168507 0)
(7.59585e-05 -0.000290717 0)
(-0.0003038 0.000301359 0)
(-0.00172728 0.00112977 0)
(-0.00410689 0.00187424 0)
(-0.00727881 0.00244605 0)
(-0.0110424 0.00283845 0)
(-0.0151946 0.00307415 0)
(-0.0195504 0.00317824 0)
(-0.0239425 0.00316648 0)
(-0.0282121 0.00304324 0)
(-0.0321997 0.00280419 0)
(-0.0357404 0.00244109 0)
(-0.0386642 0.00194732 0)
(-0.0408026 0.00132324 0)
(-0.0420006 0.000580633 0)
(-0.0421329 -0.000254155 0)
(-0.0411203 -0.00113848 0)
(-0.0389479 -0.00201491 0)
(-0.0356798 -0.00281512 0)
(-0.0314659 -0.00346633 0)
(-0.0265406 -0.00390023 0)
(-0.0212111 -0.00406304 0)
(-0.0158342 -0.00392508 0)
(-0.0107833 -0.0034882 0)
(-0.00640809 -0.00278985 0)
(-0.00299058 -0.00190475 0)
(-0.000701769 -0.00094447 0)
(0.000427704 -5.69366e-05 0)
(0.000581355 0.0005462 0)
(0.000227308 0.000544631 0)
(-0.000106419 3.70955e-05 0)
(-0.00123569 0.00174685 0)
(-0.00400264 0.00377272 0)
(-0.00808358 0.00557995 0)
(-0.0132245 0.00699347 0)
(-0.0191603 0.00798298 0)
(-0.0256149 0.00857849 0)
(-0.0323258 0.00882129 0)
(-0.0390464 0.00873915 0)
(-0.0455368 0.00834003 0)
(-0.0515558 0.00761651 0)
(-0.0568577 0.00655588 0)
(-0.0611953 0.00515228 0)
(-0.0643304 0.00341845 0)
(-0.0660505 0.00139542 0)
(-0.0661887 -0.000841117 0)
(-0.0646463 -0.00317831 0)
(-0.0614145 -0.00547133 0)
(-0.0565904 -0.00755205 0)
(-0.0503862 -0.00924459 0)
(-0.0431265 -0.0103858 0)
(-0.035234 -0.0108481 0)
(-0.0271999 -0.0105617 0)
(-0.0195412 -0.00953237 0)
(-0.012748 -0.00785244 0)
(-0.00722403 -0.00570318 0)
(-0.00322913 -0.00335327 0)
(-0.000830019 -0.001158 0)
(0.000151537 0.000441893 0)
(0.000163708 0.000842256 0)
(-0.000299401 0.000911882 0)
(-0.002239 0.00436519 0)
(-0.00644072 0.00798401 0)
(-0.0122678 0.0111285 0)
(-0.0193422 0.0135751 0)
(-0.0273341 0.0152842 0)
(-0.0359078 0.0162966 0)
(-0.0447432 0.0166682 0)
(-0.0535354 0.0164365 0)
(-0.0619839 0.0156112 0)
(-0.069786 0.0141818 0)
(-0.0766348 0.0121336 0)
(-0.0822255 0.00946723 0)
(-0.086268 0.00621698 0)
(-0.0885065 0.00246598 0)
(-0.0887416 -0.00164461 0)
(-0.0868556 -0.00591425 0)
(-0.0828355 -0.0100892 0)
(-0.0767917 -0.013879 0)
(-0.0689691 -0.0169813 0)
(-0.0597474 -0.0191152 0)
(-0.0496271 -0.0200586 0)
(-0.0391988 -0.0196862 0)
(-0.0290964 -0.0180009 0)
(-0.0199351 -0.0151542 0)
(-0.012241 -0.011452 0)
(-0.00637859 -0.00734825 0)
(-0.00248717 -0.00343084 0)
(-0.000450165 -0.000405038 0)
(6.7602e-05 0.000852745 0)
(-0.000481471 0.00233117 0)
(-0.00322247 0.00818263 0)
(-0.0088605 0.0137781 0)
(-0.0164172 0.018484 0)
(-0.0253715 0.0220907 0)
(-0.0353227 0.0245812 0)
(-0.0458816 0.0260204 0)
(-0.0566828 0.0264828 0)
(-0.0673793 0.0260147 0)
(-0.0776283 0.024626 0)
(-0.087083 0.0223028 0)
(-0.0953925 0.0190298 0)
(-0.102209 0.0148177 0)
(-0.1072 0.00972758 0)
(-0.110072 0.00389123 0)
(-0.110592 -0.00247719 0)
(-0.108612 -0.00907974 0)
(-0.104095 -0.0155426 0)
(-0.0971384 -0.0214385 0)
(-0.0879894 -0.026321 0)
(-0.077051 -0.0297697 0)
(-0.0648741 -0.031444 0)
(-0.052131 -0.0311393 0)
(-0.0395664 -0.0288369 0)
(-0.0279294 -0.0247381 0)
(-0.0178902 -0.0192762 0)
(-0.00995145 -0.0131048 0)
(-0.00436448 -0.00706478 0)
(-0.00111338 -0.00214102 0)
(-2.73909e-05 0.000520514 0)
(-0.000647738 0.00426757 0)
(-0.00414853 0.0131694 0)
(-0.0111666 0.0211278 0)
(-0.0203854 0.0276092 0)
(-0.0311357 0.0324826 0)
(-0.0429444 0.0357942 0)
(-0.0553726 0.0376541 0)
(-0.0680195 0.0381642 0)
(-0.0805095 0.0373819 0)
(-0.0924723 0.0353171 0)
(-0.103533 0.0319512 0)
(-0.113309 0.0272679 0)
(-0.121421 0.0212873 0)
(-0.127502 0.0140972 0)
(-0.131219 0.00587756 0)
(-0.132293 -0.00308429 0)
(-0.130532 -0.0123915 0)
(-0.125848 -0.0215451 0)
(-0.118296 -0.0299712 0)
(-0.108091 -0.0370612 0)
(-0.0956288 -0.0422288 0)
(-0.0814852 -0.0449817 0)
(-0.0664022 -0.0449993 0)
(-0.05124 -0.042207 0)
(-0.0369039 -0.0368322 0)
(-0.0242463 -0.0294276 0)
(-0.0139539 -0.0208561 0)
(-0.00643634 -0.0122354 0)
(-0.00181654 -0.00485703 0)
(-0.000115861 -0.000161812 0)
(-0.000797737 0.00668265 0)
(-0.00499844 0.0192552 0)
(-0.0132999 0.0299492 0)
(-0.0240703 0.0384105 0)
(-0.0364993 0.0446488 0)
(-0.0500445 0.0488151 0)
(-0.0642232 0.0510903 0)
(-0.0786082 0.051616 0)
(-0.0928067 0.0504658 0)
(-0.106434 0.0476501 0)
(-0.119101 0.0431441 0)
(-0.130407 0.036927 0)
(-0.139946 0.0290237 0)
(-0.147322 0.0195422 0)
(-0.152156 0.00870309 0)
(-0.154119 -0.00314132 0)
(-0.152947 -0.0155015 0)
(-0.14848 -0.0277556 0)
(-0.140693 -0.0391766 0)
(-0.129735 -0.0489758 0)
(-0.115954 -0.0563701 0)
(-0.099926 -0.0606709 0)
(-0.0824462 -0.0613886 0)
(-0.064495 -0.0583398 0)
(-0.047161 -0.0517354 0)
(-0.0315266 -0.0422265 0)
(-0.0185223 -0.0308916 0)
(-0.00877367 -0.0191568 0)
(-0.0025864 -0.00866683 0)
(-0.000203025 -0.00121082 0)
(-0.000930555 0.0095306 0)
(-0.00575676 0.0263432 0)
(-0.0152123 0.04012 0)
(-0.0273859 0.0507548 0)
(-0.0413407 0.0584535 0)
(-0.0564729 0.0635129 0)
(-0.0722637 0.0662104 0)
(-0.0882688 0.0667424 0)
(-0.104089 0.0652051 0)
(-0.119338 0.0616109 0)
(-0.133622 0.0559264 0)
(-0.146534 0.0481205 0)
(-0.157653 0.0382142 0)
(-0.166551 0.0263236 0)
(-0.172808 0.0126946 0)
(-0.176027 -0.00227172 0)
(-0.175863 -0.0180053 0)
(-0.172051 -0.0337732 0)
(-0.164457 -0.0486943 0)
(-0.153118 -0.0617841 0)
(-0.1383 -0.0720283 0)
(-0.120533 -0.078488 0)
(-0.10064 -0.0804346 0)
(-0.0797172 -0.0774989 0)
(-0.0590576 -0.0698081 0)
(-0.0400258 -0.0580713 0)
(-0.0238686 -0.0435814 0)
(-0.0115017 -0.028113 0)
(-0.0034746 -0.0137336 0)
(-0.000298961 -0.0026669 0)
(-0.00104369 0.0127577 0)
(-0.00640573 0.0343132 0)
(-0.0168559 0.0514851 0)
(-0.0302475 0.0644731 0)
(-0.0455372 0.0737279 0)
(-0.0620706 0.0797284 0)
(-0.0793021 0.0828739 0)
(-0.0967789 0.083431 0)
(-0.114106 0.0815267 0)
(-0.130904 0.0771772 0)
(-0.146789 0.0703376 0)
(-0.161358 0.0609595 0)
(-0.174182 0.0490476 0)
(-0.184811 0.0347093 0)
(-0.192781 0.0181953 0)
(-0.197626 -6.76844e-05 0)
(-0.198905 -0.0194533 0)
(-0.196234 -0.0391343 0)
(-0.189334 -0.0580834 0)
(-0.178094 -0.0751117 0)
(-0.162641 -0.0889416 0)
(-0.143413 -0.0983246 0)
(-0.12121 -0.102207 0)
(-0.0972152 -0.0999308 0)
(-0.0729336 -0.0914387 0)
(-0.0500592 -0.0774262 0)
(-0.030238 -0.0593831 0)
(-0.0147727 -0.0394764 0)
(-0.00454469 -0.0202899 0)
(-0.000415653 -0.00460254 0)
(-0.00113343 0.0163003 0)
(-0.00692501 0.0430207 0)
(-0.0181801 0.0638563 0)
(-0.0325681 0.0793593 0)
(-0.0489618 0.090264 0)
(-0.066668 0.0972631 0)
(-0.0851234 0.100901 0)
(-0.103875 0.10153 0)
(-0.122539 0.0993155 0)
(-0.140757 0.094282 0)
(-0.158163 0.0863701 0)
(-0.174369 0.075506 0)
(-0.18895 0.0616646 0)
(-0.201445 0.0449252 0)
(-0.211354 0.0255187 0)
(-0.218147 0.00386849 0)
(-0.221287 -0.019377 0)
(-0.22026 -0.0433206 0)
(-0.214622 -0.0668093 0)
(-0.204075 -0.0884544 0)
(-0.188555 -0.106694 0)
(-0.168335 -0.119912 0)
(-0.144123 -0.126636 0)
(-0.117126 -0.125788 0)
(-0.0890382 -0.116984 0)
(-0.0619113 -0.100787 0)
(-0.0378779 -0.0788308 0)
(-0.0187496 -0.0537124 0)
(-0.00586592 -0.0286467 0)
(-0.000565943 -0.00712646 0)
(-0.00119559 0.020083 0)
(-0.00729381 0.0522965 0)
(-0.0191354 0.0770125 0)
(-0.0342625 0.0951684 0)
(-0.0514879 0.107811 0)
(-0.0700912 0.11587 0)
(-0.0894989 0.120057 0)
(-0.109265 0.120825 0)
(-0.129024 0.118387 0)
(-0.148445 0.11278 0)
(-0.167192 0.103929 0)
(-0.184903 0.0917275 0)
(-0.201174 0.0761081 0)
(-0.215547 0.0571018 0)
(-0.227502 0.0348937 0)
(-0.236464 0.0098709 0)
(-0.241812 -0.0173317 0)
(-0.242905 -0.0457867 0)
(-0.239129 -0.0742521 0)
(-0.229972 -0.101162 0)
(-0.215127 -0.12467 0)
(-0.194622 -0.142754 0)
(-0.168974 -0.153425 0)
(-0.139313 -0.155037 0)
(-0.107448 -0.146687 0)
(-0.0757815 -0.128622 0)
(-0.0470079 -0.102505 0)
(-0.0235933 -0.0713711 0)
(-0.00751035 -0.0391957 0)
(-0.000763526 -0.0103854 0)
(-0.00122638 0.0240192 0)
(-0.00749404 0.0619482 0)
(-0.0196788 0.0907017 0)
(-0.0352557 0.111618 0)
(-0.0530011 0.126071 0)
(-0.0721768 0.13525 0)
(-0.0922051 0.140045 0)
(-0.11265 0.141026 0)
(-0.133172 0.138466 0)
(-0.153473 0.132419 0)
(-0.173255 0.122797 0)
(-0.192199 0.109456 0)
(-0.209933 0.0922763 0)
(-0.226025 0.0712234 0)
(-0.239964 0.0464118 0)
(-0.251154 0.0181604 0)
(-0.258919 -0.0129488 0)
(-0.262519 -0.0460088 0)
(-0.261182 -0.0797412 0)
(-0.254174 -0.112453 0)
(-0.240901 -0.142042 0)
(-0.221072 -0.166073 0)
(-0.194888 -0.181966 0)
(-0.163261 -0.187352 0)
(-0.127977 -0.180572 0)
(-0.09172 -0.161289 0)
(-0.0577857 -0.130982 0)
(-0.0294507 -0.0930656 0)
(-0.00955101 -0.0524048 0)
(-0.00102336 -0.0145653 0)
(-0.00122331 0.0280138 0)
(-0.0075141 0.0717654 0)
(-0.0197821 0.104647 0)
(-0.0354956 0.128391 0)
(-0.0534155 0.144706 0)
(-0.0727931 0.155046 0)
(-0.0930499 0.160497 0)
(-0.113763 0.161757 0)
(-0.134619 0.159173 0)
(-0.155358 0.152823 0)
(-0.175732 0.142612 0)
(-0.195471 0.128359 0)
(-0.21426 0.109887 0)
(-0.231715 0.0870841 0)
(-0.247363 0.0599762 0)
(-0.26063 0.0287857 0)
(-0.270827 -0.00599943 0)
(-0.277159 -0.0435516 0)
(-0.278735 -0.0826193 0)
(-0.274614 -0.12146 0)
(-0.263905 -0.157788 0)
(-0.245928 -0.188792 0)
(-0.220448 -0.211277 0)
(-0.187977 -0.222011 0)
(-0.150079 -0.218319 0)
(-0.109554 -0.198916 0)
(-0.0702648 -0.16475 0)
(-0.0364387 -0.119433 0)
(-0.0120597 -0.0688075 0)
(-0.00136218 -0.0198914 0)
(-0.00118612 0.0319674 0)
(-0.00735309 0.081529 0)
(-0.0194409 0.118555 0)
(-0.0349661 0.14515 0)
(-0.0526927 0.163341 0)
(-0.0718648 0.174853 0)
(-0.0919045 0.180978 0)
(-0.112402 0.182556 0)
(-0.133071 0.180019 0)
(-0.153695 0.173485 0)
(-0.174078 0.162858 0)
(-0.194017 0.147928 0)
(-0.213267 0.128459 0)
(-0.23152 0.104262 0)
(-0.248376 0.0752629 0)
(-0.263328 0.0415662 0)
(-0.275732 0.00352994 0)
(-0.284794 -0.0381506 0)
(-0.289561 -0.0823311 0)
(-0.288943 -0.127321 0)
(-0.281771 -0.170765 0)
(-0.266948 -0.209574 0)
(-0.243699 -0.239982 0)
(-0.211944 -0.257817 0)
(-0.172763 -0.259136 0)
(-0.128804 -0.241266 0)
(-0.0843414 -0.2041 0)
(-0.044623 -0.151073 0)
(-0.0151036 -0.0889832 0)
(-0.00179901 -0.0266283 0)
(-0.0011176 0.0357833 0)
(-0.00702491 0.0910248 0)
(-0.0186837 0.132136 0)
(-0.0337032 0.161543 0)
(-0.0508619 0.181577 0)
(-0.0693987 0.194226 0)
(-0.088736 0.200996 0)
(-0.108477 0.202883 0)
(-0.128363 0.20042 0)
(-0.148221 0.193779 0)
(-0.167918 0.182877 0)
(-0.187323 0.167486 0)
(-0.206281 0.147322 0)
(-0.224581 0.122122 0)
(-0.241935 0.0917125 0)
(-0.257942 0.0560704 0)
(-0.272061 0.0153985 0)
(-0.283571 -0.0297844 0)
(-0.29154 -0.0785238 0)
(-0.294805 -0.129299 0)
(-0.291985 -0.179831 0)
(-0.281591 -0.226922 0)
(-0.262254 -0.266364 0)
(-0.233141 -0.293075 0)
(-0.194551 -0.301657 0)
(-0.148613 -0.287583 0)
(-0.0996931 -0.248987 0)
(-0.0539893 -0.18846 0)
(-0.0187395 -0.113525 0)
(-0.00235556 -0.0350768 0)
(-0.00102442 0.0393771 0)
(-0.00656247 0.100062 0)
(-0.0175817 0.145118 0)
(-0.0318084 0.177234 0)
(-0.0480398 0.19901 0)
(-0.0655085 0.212696 0)
(-0.0836373 0.220018 0)
(-0.102043 0.222142 0)
(-0.120498 0.219718 0)
(-0.138877 0.212989 0)
(-0.157113 0.201904 0)
(-0.175159 0.18623 0)
(-0.19296 0.165653 0)
(-0.210426 0.139849 0)
(-0.227402 0.108556 0)
(-0.243637 0.071627 0)
(-0.258743 0.0290989 0)
(-0.272135 -0.0187224 0)
(-0.282992 -0.0711391 0)
(-0.290186 -0.126913 0)
(-0.292226 -0.184014 0)
(-0.28732 -0.239351 0)
(-0.273531 -0.288511 0)
(-0.249175 -0.325663 0)
(-0.213512 -0.343913 0)
(-0.167707 -0.336467 0)
(-0.115721 -0.298864 0)
(-0.0644099 -0.231827 0)
(-0.0230072 -0.142994 0)
(-0.00305663 -0.0455696 0)
(-0.000917887 0.0426876 0)
(-0.00602183 0.108496 0)
(-0.0162579 0.15728 0)
(-0.0294637 0.191917 0)
(-0.0444475 0.215254 0)
(-0.0604336 0.229795 0)
(-0.0768488 0.237495 0)
(-0.0933296 0.239706 0)
(-0.109685 0.237214 0)
(-0.125846 0.230349 0)
(-0.141816 0.21911 0)
(-0.157641 0.203282 0)
(-0.173377 0.182537 0)
(-0.189066 0.156513 0)
(-0.204704 0.124876 0)
(-0.220214 0.0873694 0)
(-0.235399 0.0438742 0)
(-0.249866 -0.00552978 0)
(-0.262984 -0.0604723 0)
(-0.273763 -0.120063 0)
(-0.280744 -0.18269 0)
(-0.281978 -0.245617 0)
(-0.275081 -0.304544 0)
(-0.257537 -0.353211 0)
(-0.227391 -0.383397 0)
(-0.184414 -0.385809 0)
(-0.131511 -0.352531 0)
(-0.0756096 -0.281024 0)
(-0.0279228 -0.177854 0)
(-0.00393142 -0.0584633 0)
(-0.000815118 0.0456908 0)
(-0.00548765 0.116256 0)
(-0.0148984 0.168475 0)
(-0.0269445 0.205351 0)
(-0.0404246 0.229962 0)
(-0.0545527 0.245072 0)
(-0.0687694 0.252883 0)
(-0.0827457 0.254946 0)
(-0.0963421 0.2522 0)
(-0.109555 0.245084 0)
(-0.122473 0.233662 0)
(-0.13524 0.217756 0)
(-0.14803 0.197045 0)
(-0.161019 0.17115 0)
(-0.174362 0.139686 0)
(-0.188162 0.102314 0)
(-0.202426 0.0587693 0)
(-0.217013 0.00891553 0)
(-0.231513 -0.0471906 0)
(-0.245149 -0.109093 0)
(-0.256666 -0.175722 0)
(-0.264146 -0.244932 0)
(-0.264962 -0.312895 0)
(-0.255923 -0.373386 0)
(-0.233842 -0.417271 0)
(-0.196767 -0.432839 0)
(-0.145832 -0.408024 0)
(-0.0871396 -0.335362 0)
(-0.033476 -0.218393 0)
(-0.00501678 -0.0741302 0)
(-0.000741397 0.0484173 0)
(-0.0050819 0.123381 0)
(-0.0137662 0.178673 0)
(-0.0246357 0.217385 0)
(-0.0364407 0.242848 0)
(-0.0483879 0.258116 0)
(-0.0599537 0.26566 0)
(-0.0708708 0.267251 0)
(-0.0810768 0.263997 0)
(-0.0906555 0.256455 0)
(-0.0997915 0.244773 0)
(-0.108736 0.228821 0)
(-0.117782 0.208306 0)
(-0.12724 0.182847 0)
(-0.137417 0.152035 0)
(-0.148589 0.115469 0)
(-0.160965 0.0727662 0)
(-0.174629 0.0236002 0)
(-0.189441 -0.0322422 0)
(-0.204929 -0.0947735 0)
(-0.220129 -0.163529 0)
(-0.233358 -0.237134 0)
(-0.242025 -0.312579 0)
(-0.242552 -0.384218 0)
(-0.230704 -0.442672 0)
(-0.202676 -0.474294 0)
(-0.157184 -0.462588 0)
(-0.0983638 -0.393463 0)
(-0.0396354 -0.26463 0)
(-0.00636528 -0.0929544 0)
(-0.000735596 0.0509769 0)
(-0.00498052 0.130058 0)
(-0.0132257 0.187989 0)
(-0.0230519 0.227982 0)
(-0.033105 0.253702 0)
(-0.0426006 0.268561 0)
(-0.0510921 0.275338 0)
(-0.0584203 0.276045 0)
(-0.0646397 0.271966 0)
(-0.0699502 0.263784 0)
(-0.0746511 0.251735 0)
(-0.0791085 0.235747 0)
(-0.0837328 0.21556 0)
(-0.0889592 0.190808 0)
(-0.095229 0.161076 0)
(-0.102975 0.125926 0)
(-0.11258 0.0848868 0)
(-0.124331 0.0374819 0)
(-0.138352 -0.0167508 0)
(-0.154493 -0.0782175 0)
(-0.172166 -0.147057 0)
(-0.190099 -0.222749 0)
(-0.206022 -0.303373 0)
(-0.216368 -0.384406 0)
(-0.216235 -0.45707 0)
(-0.200114 -0.506711 0)
(-0.163877 -0.512752 0)
(-0.108456 -0.453139 0)
(-0.0463632 -0.316207 0)
(-0.0080617 -0.115341 0)
(-0.000862466 0.0535971 0)
(-0.00544582 0.136682 0)
(-0.0137818 0.19673 0)
(-0.0228648 0.237232 0)
(-0.0311715 0.262383 0)
(-0.037971 0.276074 0)
(-0.0429669 0.281449 0)
(-0.0461789 0.280776 0)
(-0.0478345 0.275513 0)
(-0.0482872 0.266461 0)
(-0.047971 0.253934 0)
(-0.0473729 0.237915 0)
(-0.047016 0.21818 0)
(-0.0474438 0.194381 0)
(-0.0492034 0.166102 0)
(-0.0528587 0.1329 0)
(-0.0589394 0.0942281 0)
(-0.0678883 0.0495029 0)
(-0.0800529 -0.00191664 0)
(-0.0955933 -0.0607473 0)
(-0.11433 -0.127649 0)
(-0.135513 -0.202925 0)
(-0.157451 -0.285868 0)
(-0.177018 -0.373516 0)
(-0.189202 -0.458599 0)
(-0.187244 -0.52677 0)
(-0.164099 -0.554513 0)
(-0.116388 -0.511305 0)
(-0.0536306 -0.37226 0)
(-0.0102516 -0.141751 0)
(-0.00123898 0.0566922 0)
(-0.00688712 0.143934 0)
(-0.0161406 0.20542 0)
(-0.0249328 0.24534 0)
(-0.0315229 0.268784 0)
(-0.0353386 0.280316 0)
(-0.0363549 0.283508 0)
(-0.0348722 0.280889 0)
(-0.0313615 0.274064 0)
(-0.0263722 0.263922 0)
(-0.0204929 0.250832 0)
(-0.0143327 0.234812 0)
(-0.00851599 0.215663 0)
(-0.00367374 0.193052 0)
(-0.000419231 0.166567 0)
(0.000575866 0.135729 0)
(-0.00133805 0.0999887 0)
(-0.00669943 0.0587035 0)
(-0.0160295 0.011101 0)
(-0.0297616 -0.0437428 0)
(-0.0481067 -0.106868 0)
(-0.0708793 -0.179257 0)
(-0.0971413 -0.261361 0)
(-0.124598 -0.352016 0)
(-0.148771 -0.446261 0)
(-0.162398 -0.531606 0)
(-0.155904 -0.583562 0)
(-0.120864 -0.563931 0)
(-0.0614009 -0.431238 0)
(-0.0131798 -0.172763 0)
(-0.00208772 0.0609906 0)
(-0.00996576 0.152876 0)
(-0.0212869 0.214805 0)
(-0.0302992 0.252562 0)
(-0.0350792 0.272744 0)
(-0.0354318 0.280846 0)
(-0.0317949 0.280934 0)
(-0.0248832 0.275757 0)
(-0.0154926 0.267007 0)
(-0.00440723 0.2556 0)
(0.00761691 0.241909 0)
(0.0198558 0.225958 0)
(0.0316065 0.20755 0)
(0.0421735 0.186357 0)
(0.0508765 0.161961 0)
(0.0570115 0.133856 0)
(0.0598822 0.101508 0)
(0.058835 0.0642532 0)
(0.0532113 0.0212553 0)
(0.0423748 -0.0285104 0)
(0.0257753 -0.0862984 0)
(0.00305924 -0.153544 0)
(-0.025652 -0.231632 0)
(-0.059178 -0.321155 0)
(-0.0941843 -0.419983 0)
(-0.123876 -0.519025 0)
(-0.137055 -0.595509 0)
(-0.120136 -0.606004 0)
(-0.0695034 -0.490622 0)
(-0.0172154 -0.209152 0)
(-0.00383859 0.0677742 0)
(-0.0157557 0.165074 0)
(-0.0305231 0.225769 0)
(-0.0400378 0.259013 0)
(-0.0424593 0.273832 0)
(-0.0383836 0.276945 0)
(-0.0289932 0.272897 0)
(-0.0155773 0.264557 0)
(0.00066488 0.253585 0)
(0.0186855 0.240824 0)
(0.0375695 0.22658 0)
(0.0564988 0.210834 0)
(0.0747168 0.19336 0)
(0.0914982 0.173813 0)
(0.106135 0.151771 0)
(0.117914 0.126738 0)
(0.126114 0.0981704 0)
(0.13001 0.0654063 0)
(0.12884 0.0276274 0)
(0.121802 -0.0161923 0)
(0.108068 -0.0673631 0)
(0.0868219 -0.12752 0)
(0.0574184 -0.198637 0)
(0.0198149 -0.282729 0)
(-0.0242621 -0.380528 0)
(-0.0695511 -0.487643 0)
(-0.104671 -0.586068 0)
(-0.111609 -0.631444 0)
(-0.0772507 -0.546405 0)
(-0.0227768 -0.251812 0)
(-0.00730287 0.0793108 0)
(-0.0259262 0.182643 0)
(-0.0452609 0.239003 0)
(-0.0545758 0.264217 0)
(-0.0529265 0.270929 0)
(-0.0424119 0.267249 0)
(-0.0253305 0.258039 0)
(-0.00370616 0.246054 0)
(0.0208116 0.232728 0)
(0.0469231 0.218691 0)
(0.0735894 0.204092 0)
(0.099944 0.188803 0)
(0.125223 0.172537 0)
(0.148713 0.154921 0)
(0.169724 0.135522 0)
(0.187556 0.11386 0)
(0.201486 0.0894047 0)
(0.210749 0.0615342 0)
(0.214512 0.0294961 0)
(0.211833 -0.00765414 0)
(0.201671 -0.0511481 0)
(0.182843 -0.102587 0)
(0.154068 -0.164147 0)
(0.114229 -0.238714 0)
(0.0631788 -0.329426 0)
(0.00366754 -0.43708 0)
(-0.054604 -0.551349 0)
(-0.0910658 -0.632997 0)
(-0.082576 -0.592268 0)
(-0.0299543 -0.301424 0)
(-0.0138824 0.0995426 0)
(-0.0426818 0.207883 0)
(-0.0658335 0.254072 0)
(-0.0714301 0.266128 0)
(-0.061432 0.26141 0)
(-0.0404994 0.249163 0)
(-0.0124119 0.234067 0)
(0.020013 0.218348 0)
(0.0547424 0.202923 0)
(0.090333 0.188027 0)
(0.125732 0.173543 0)
(0.160123 0.159181 0)
(0.192816 0.144566 0)
(0.22318 0.129282 0)
(0.250596 0.112897 0)
(0.274419 0.0949539 0)
(0.293957 0.0749666 0)
(0.308445 0.0523887 0)
(0.317009 0.026577 0)
(0.318603 -0.00326761 0)
(0.312045 -0.0381782 0)
(0.295896 -0.0795577 0)
(0.268415 -0.12944 0)
(0.227642 -0.190928 0)
(0.171751 -0.268669 0)
(0.100477 -0.368057 0)
(0.0195785 -0.488431 0)
(-0.0512206 -0.602344 0)
(-0.0805155 -0.618724 0)
(-0.037522 -0.35832 0)
(-0.0254045 0.135061 0)
(-0.0671221 0.241016 0)
(-0.0867449 0.266505 0)
(-0.0784737 0.258715 0)
(-0.05121 0.239497 0)
(-0.0131196 0.217892 0)
(0.0306474 0.197315 0)
(0.0768546 0.178793 0)
(0.123482 0.16236 0)
(0.169279 0.14768 0)
(0.213444 0.13429 0)
(0.255405 0.12171 0)
(0.294694 0.109474 0)
(0.33087 0.0971417 0)
(0.363463 0.084297 0)
(0.391949 0.070534 0)
(0.415722 0.055443 0)
(0.434068 0.0385848 0)
(0.446127 0.0194606 0)
(0.450833 -0.00254281 0)
(0.446948 -0.0281416 0)
(0.432881 -0.0584455 0)
(0.406648 -0.0951004 0)
(0.365763 -0.140836 0)
(0.307155 -0.200532 0)
(0.227646 -0.282429 0)
(0.127757 -0.395548 0)
(0.0206455 -0.530986 0)
(-0.0610027 -0.612547 0)
(-0.0408572 -0.421794 0)
(-0.0413029 0.197231 0)
(-0.0902245 0.272646 0)
(-0.0798395 0.259258 0)
(-0.0362164 0.226391 0)
(0.021698 0.193572 0)
(0.0841825 0.16557 0)
(0.146653 0.142871 0)
(0.206898 0.124647 0)
(0.263923 0.109844 0)
(0.317346 0.0975347 0)
(0.367051 0.0869701 0)
(0.412994 0.0775483 0)
(0.455111 0.0687801 0)
(0.493272 0.0602581 0)
(0.527249 0.051633 0)
(0.556706 0.0425921 0)
(0.581184 0.0328412 0)
(0.60009 0.0220837 0)
(0.612645 0.00999474 0)
(0.617932 -0.00383442 0)
(0.614763 -0.0197908 0)
(0.601539 -0.0385885 0)
(0.576292 -0.0613207 0)
(0.536374 -0.089913 0)
(0.478063 -0.128229 0)
(0.396062 -0.18445 0)
(0.285061 -0.273856 0)
(0.145956 -0.410562 0)
(-0.00340071 -0.554017 0)
(-0.0253887 -0.477517 0)
(-0.0341404 0.293715 0)
(-0.0479293 0.272562 0)
(0.0537019 0.199509 0)
(0.156776 0.149683 0)
(0.24974 0.114906 0)
(0.33204 0.0900616 0)
(0.404591 0.0724534 0)
(0.46857 0.059851 0)
(0.52524 0.0505481 0)
(0.575724 0.0433966 0)
(0.620888 0.0376435 0)
(0.661343 0.0327767 0)
(0.697474 0.0284318 0)
(0.729474 0.0243382 0)
(0.757365 0.0202859 0)
(0.781016 0.0161026 0)
(0.800151 0.0116378 0)
(0.814361 0.00675295 0)
(0.823011 0.0013031 0)
(0.825493 -0.00477113 0)
(0.820849 -0.0118055 0)
(0.807777 -0.0200709 0)
(0.78466 -0.0300303 0)
(0.749186 -0.0426148 0)
(0.697755 -0.0598719 0)
(0.62427 -0.0868857 0)
(0.518466 -0.137179 0)
(0.365129 -0.240276 0)
(0.144125 -0.406974 0)
(0.0588657 -0.458305 0)
(0.303209 0.180899 0)
(0.38241 0.144226 0)
(0.560592 0.0910714 0)
(0.68634 0.0589448 0)
(0.769058 0.039339 0)
(0.828762 0.0268749 0)
(0.874796 0.0189884 0)
(0.911513 0.0140018 0)
(0.941617 0.0107685 0)
(0.966912 0.00857473 0)
(0.988542 0.0069963 0)
(1.00721 0.00577777 0)
(1.02332 0.00476005 0)
(1.0371 0.00384031 0)
(1.04862 0.00294891 0)
(1.05787 0.00203567 0)
(1.06471 0.00106029 0)
(1.06897 -7.55918e-06 0)
(1.0704 -0.00120868 0)
(1.06862 -0.00244407 0)
(1.06313 -0.00391475 0)
(1.05345 -0.00565813 0)
(1.03878 -0.00774879 0)
(1.01795 -0.0103939 0)
(0.988899 -0.0140925 0)
(0.947507 -0.0201883 0)
(0.883969 -0.032574 0)
(0.776348 -0.0637505 0)
(0.544821 -0.139464 0)
(0.38249 -0.201736 0)
)
;

boundaryField
{
    movingWall
    {
        type            fixedValue;
        value           uniform (1.2 0 0);
    }
    fixedWalls
    {
        type            noSlip;
    }
    frontAndBack
    {
        type            empty;
    }
}


// ************************************************************************* //
