/*--------------------------------*- C++ -*----------------------------------*\
  =========                 |
  \\      /  F ield         | OpenFOAM: The Open Source CFD Toolbox
   \\    /   O peration     | Website:  https://openfoam.org
    \\  /    A nd           | Version:  7
     \\/     M anipulation  |
\*---------------------------------------------------------------------------*/
FoamFile
{
    version     2.0;
    format      ascii;
    class       volScalarField;
    location    "9.8";
    object      p;
}
// * * * * * * * * * * * * * * * * * * * * * * * * * * * * * * * * * * * * * //

dimensions      [0 2 -2 0 0 0 0];

internalField   nonuniform List<scalar> 
900
(
-1.85157e-06
-0.000356267
-0.000939318
-0.00157067
-0.00213825
-0.00257663
-0.00285176
-0.00294684
-0.00285154
-0.00255731
-0.00205708
-0.00134784
-0.0004347
0.000664656
0.00191622
0.00326758
0.00464817
0.00597296
0.00714926
0.00808663
0.00870871
0.00896525
0.0088422
0.00836779
0.00761343
0.00668719
0.00572465
0.00488481
0.00433319
0.00419501
0.000347819
-1.97292e-05
-0.000466893
-0.000932431
-0.00135028
-0.00167337
-0.00187506
-0.00193949
-0.00185513
-0.00161239
-0.00120372
-0.0006256
0.000118394
0.0010142
0.00203413
0.00313512
0.00426103
0.00534143
0.00630066
0.00706519
0.00757351
0.00778625
0.00769439
0.00732371
0.00673431
0.00601556
0.00527591
0.0046175
0.00418018
0.00405447
0.000953074
0.000411432
-5.10889e-05
-0.000469199
-0.0008289
-0.00110229
-0.00127405
-0.00133444
-0.00127408
-0.00108313
-0.000752307
-0.000275127
0.000348981
0.00111121
0.00199031
0.00295115
0.00394305
0.00490331
0.00576219
0.00645059
0.00690984
0.00710168
0.00701636
0.00667682
0.00613756
0.00547844
0.00479404
0.00417968
0.00373082
0.00351879
0.0016342
0.000854832
0.00031089
-0.000118861
-0.0004692
-0.000731051
-0.000902086
-0.000980712
-0.000960819
-0.00083227
-0.00058292
-0.000201504
0.000318671
0.000975697
0.00175532
0.00262833
0.00354887
0.00445686
0.00528254
0.00595439
0.0064094
0.00660394
0.00652292
0.00618464
0.00563969
0.00496385
0.00424729
0.00358256
0.00304465
0.002669
0.00224225
0.00120694
0.000557791
8.95303e-05
-0.000278674
-0.000555102
-0.000749915
-0.000869386
-0.000910254
-0.000861301
-0.000706331
-0.00042782
-1.13525e-05
0.000549495
0.00124838
0.0020623
0.00294989
0.00385145
0.00469407
0.00539947
0.00589508
0.00612644
0.00606814
0.00573039
0.00515885
0.00442738
0.00362723
0.00285484
0.00217463
0.00158296
0.00265208
0.00136342
0.000600064
7.66789e-05
-0.000330533
-0.000645489
-0.00088943
-0.00107522
-0.00120128
-0.0012541
-0.00121211
-0.00105001
-0.000744033
-0.000277754
0.000351887
0.00112929
0.00201779
0.00295738
0.00387008
0.00466723
0.00526157
0.00558157
0.005585
0.00526848
0.00466963
0.00386073
0.00293868
0.00201177
0.00114211
0.000293354
0.00275363
0.00122781
0.00035072
-0.000237534
-0.000700563
-0.00107639
-0.00139571
-0.00167637
-0.00191703
-0.00210054
-0.00219852
-0.00217629
-0.00199886
-0.00163765
-0.00107787
-0.000325474
0.000589846
0.00160852
0.00264695
0.00360346
0.004371
0.00485358
0.00498352
0.00473554
0.00413312
0.00324502
0.00217701
0.0010574
-4.48002e-05
-0.00119395
0.00244951
0.000711356
-0.000272882
-0.000931367
-0.00146439
-0.00192286
-0.0023454
-0.00275333
-0.00314418
-0.00349591
-0.00377197
-0.00392665
-0.00391154
-0.00368314
-0.00321148
-0.00248904
-0.00153378
-0.000402521
0.000817263
0.00200971
0.00304323
0.00378896
0.00414249
0.00404444
0.00349386
0.00255035
0.00132966
-1.1916e-05
-0.00138922
-0.002892
0.00165357
-0.000265854
-0.00134723
-0.00207944
-0.00269605
-0.00325981
-0.00381609
-0.00438848
-0.0049724
-0.00553998
-0.00604541
-0.00643033
-0.00663057
-0.00658427
-0.00624139
-0.0055742
-0.00458666
-0.00332314
-0.00187143
-0.000360563
0.00104991
0.00218932
0.00290252
0.00307902
0.00267712
0.00173589
0.000378532
-0.00120351
-0.00289953
-0.00482377
0.000292297
-0.00177205
-0.00293852
-0.00374754
-0.00446188
-0.00515526
-0.00587893
-0.00665804
-0.00748547
-0.00832716
-0.00912738
-0.00981385
-0.0103043
-0.0105146
-0.0103691
-0.00981189
-0.00882644
-0.00743352
-0.00571352
-0.00380374
-0.00189217
-0.000199103
0.00105369
0.00168238
0.00158017
0.000745625
-0.000699794
-0.00252449
-0.00458253
-0.00701275
-0.00169182
-0.00386017
-0.00509832
-0.00598724
-0.00681407
-0.0076627
-0.00858977
-0.00962186
-0.0107496
-0.011933
-0.0131064
-0.0141831
-0.0150605
-0.0156288
-0.0157809
-0.0154265
-0.01451
-0.0130236
-0.0110263
-0.00865302
-0.00611517
-0.0036867
-0.00167134
-0.000352813
6.33928e-05
-0.000496963
-0.00193432
-0.00397751
-0.00643605
-0.00947344
-0.00433635
-0.00656422
-0.00785946
-0.00883087
-0.00978439
-0.0108134
-0.0119799
-0.0133122
-0.0147998
-0.0163978
-0.0180318
-0.0196003
-0.0209796
-0.022031
-0.0226106
-0.0225847
-0.0218486
-0.0203498
-0.0181092
-0.0152427
-0.0119728
-0.0086235
-0.00559084
-0.00328589
-0.00205509
-0.00209322
-0.00335973
-0.00555593
-0.00844039
-0.0122007
-0.00765526
-0.0098962
-0.0112326
-0.0122872
-0.0133787
-0.0146094
-0.0160469
-0.0177226
-0.0196262
-0.02171
-0.0238924
-0.0260586
-0.0280637
-0.0297382
-0.0308977
-0.0313573
-0.0309526
-0.029573
-0.027179
-0.0238458
-0.019785
-0.0153554
-0.0110449
-0.0074136
-0.00499543
-0.0041695
-0.0050147
-0.00723725
-0.0105476
-0.0151568
-0.0116363
-0.0138443
-0.0152045
-0.0163389
-0.0175728
-0.0190174
-0.0207469
-0.0227974
-0.025161
-0.0277901
-0.0305979
-0.0334586
-0.0362077
-0.0386451
-0.040544
-0.0416645
-0.0417763
-0.040689
-0.0382913
-0.0345894
-0.0297538
-0.0241486
-0.0183355
-0.0130298
-0.00899423
-0.00686737
-0.00693535
-0.00897333
-0.0126669
-0.0182538
-0.0162406
-0.0183734
-0.0197378
-0.0209414
-0.0223106
-0.0239659
-0.0259899
-0.0284258
-0.0312711
-0.0344807
-0.0379663
-0.0415937
-0.0451812
-0.0485004
-0.0512831
-0.0532344
-0.0540535
-0.0534625
-0.0512615
-0.0473637
-0.0418637
-0.0350886
-0.0276346
-0.0203529
-0.0142562
-0.0103164
-0.00913933
-0.0106751
-0.0146454
-0.0213308
-0.0214045
-0.0234278
-0.0247746
-0.0260262
-0.0275058
-0.0293453
-0.031639
-0.0344403
-0.0377557
-0.0415457
-0.0457233
-0.0501492
-0.0546275
-0.0589053
-0.0626767
-0.0655954
-0.0672892
-0.0673874
-0.0656142
-0.0617538
-0.0557936
-0.0479764
-0.0388747
-0.0294249
-0.0208751
-0.0145822
-0.0115946
-0.0121889
-0.0162418
-0.0241239
-0.027045
-0.0289381
-0.0302428
-0.0315055
-0.0330461
-0.0350119
-0.0375143
-0.040622
-0.0443539
-0.0486794
-0.0535155
-0.0587201
-0.0640867
-0.069341
-0.0741449
-0.0781057
-0.0807836
-0.0817051
-0.0806002
-0.0770331
-0.0708792
-0.0622582
-0.0516519
-0.0400022
-0.0287319
-0.0195885
-0.0141683
-0.0132607
-0.0170919
-0.0262274
-0.0330682
-0.0348308
-0.0360651
-0.0372816
-0.0388011
-0.0407954
-0.0434018
-0.0467111
-0.0507592
-0.0555272
-0.0609374
-0.0668466
-0.0730391
-0.0792235
-0.0850336
-0.0900367
-0.0937599
-0.0957271
-0.0953167
-0.0922315
-0.0861531
-0.0770278
-0.0651836
-0.0514741
-0.0373935
-0.025021
-0.0165544
-0.0134862
-0.0166638
-0.027046
-0.0393818
-0.0410427
-0.0421726
-0.0432566
-0.044631
-0.0465079
-0.0490642
-0.0524223
-0.0566406
-0.0617133
-0.0675682
-0.07406
-0.080964
-0.0879725
-0.0946955
-0.100667
-0.105368
-0.108247
-0.108711
-0.10626
-0.100468
-0.0911215
-0.0783555
-0.0628509
-0.0460477
-0.0302359
-0.0181868
-0.0122438
-0.0142025
-0.0257335
-0.045912
-0.0475396
-0.0485199
-0.049344
-0.0503956
-0.0519529
-0.054253
-0.0574624
-0.0616665
-0.0668731
-0.0730127
-0.0799345
-0.0874018
-0.0950891
-0.102584
-0.109393
-0.114959
-0.118681
-0.119934
-0.118115
-0.112692
-0.103297
-0.0898636
-0.0728462
-0.0535136
-0.0342073
-0.0181556
-0.00861489
-0.00865893
-0.0211115
-0.052629
-0.0543424
-0.0551033
-0.0554783
-0.0559592
-0.0569315
-0.0587195
-0.0615469
-0.0655293
-0.0706846
-0.0769399
-0.0841317
-0.0920047
-0.100212
-0.108316
-0.115793
-0.122053
-0.126463
-0.12834
-0.127022
-0.121887
-0.112435
-0.0984146
-0.080043
-0.0583416
-0.0355434
-0.0151524
-0.00129635
0.00139752
-0.011552
-0.0595912
-0.0615657
-0.0619819
-0.0616213
-0.0611924
-0.0612456
-0.0622232
-0.0644162
-0.0679677
-0.0728961
-0.0791139
-0.0864335
-0.0945703
-0.10315
-0.111712
-0.119677
-0.126432
-0.131336
-0.133596
-0.132532
-0.127438
-0.117704
-0.102924
-0.0831018
-0.0589868
-0.0325836
-0.0074718
0.0114738
0.0178879
0.00520586
-0.0670305
-0.0694796
-0.0693036
-0.0677646
-0.0659672
-0.064698
-0.0645407
-0.0658524
-0.0687885
-0.0733504
-0.0794186
-0.0867653
-0.0950677
-0.103908
-0.112778
-0.121082
-0.128154
-0.133273
-0.135658
-0.134524
-0.129091
-0.11865
-0.102665
-0.0809624
-0.054012
-0.0235706
0.0069053
0.0319526
0.0433694
0.032358
-0.0755387
-0.0786162
-0.0773379
-0.0739275
-0.0701523
-0.0670962
-0.06548
-0.0656993
-0.0678898
-0.0720046
-0.0778656
-0.085189
-0.0935967
-0.10262
-0.111702
-0.120204
-0.127408
-0.132531
-0.134736
-0.133156
-0.126914
-0.115194
-0.0973333
-0.0730089
-0.0423208
-0.0069373
0.0300867
0.0628493
0.0812511
0.0745253
-0.0864922
-0.0899558
-0.08651
-0.0801496
-0.0736098
-0.0682627
-0.0648992
-0.0638847
-0.0652764
-0.0689357
-0.0745967
-0.0818979
-0.0903934
-0.099555
-0.108772
-0.117352
-0.124521
-0.129431
-0.131167
-0.128766
-0.121228
-0.107604
-0.0870621
-0.0590603
-0.0235995
0.0182278
0.0637761
0.107091
0.135971
0.138261
-0.103047
-0.105266
-0.0974106
-0.0864563
-0.0761773
-0.0680298
-0.0627045
-0.0604116
-0.0610432
-0.0643147
-0.0698397
-0.0771604
-0.0857531
-0.0950257
-0.104311
-0.112862
-0.119847
-0.124348
-0.125368
-0.121834
-0.112589
-0.0965242
-0.07258
-0.0399312
0.00175608
0.0519089
0.108529
0.167034
0.212538
0.231994
-0.132364
-0.127636
-0.11085
-0.0928673
-0.0776596
-0.066219
-0.0588205
-0.0553236
-0.0553379
-0.0583666
-0.0638709
-0.0712833
-0.0799997
-0.089366
-0.098663
-0.107095
-0.113777
-0.11773
-0.117878
-0.11304
-0.101899
-0.083134
-0.0553915
-0.0174225
0.031709
0.0923255
0.163823
0.242638
0.314784
0.367355
-0.190608
-0.160657
-0.12739
-0.099031
-0.077458
-0.0623487
-0.0530022
-0.0485969
-0.0483005
-0.0513406
-0.0570077
-0.0646272
-0.0735256
-0.083001
-0.0922978
-0.100586
-0.106944
-0.110344
-0.109646
-0.103575
-0.0907712
-0.0696062
-0.0383889
0.00470213
0.0615896
0.134198
0.224364
0.331415
0.44484
0.571131
-0.321684
-0.200366
-0.138856
-0.097484
-0.0697858
-0.0522417
-0.0423743
-0.0382802
-0.0385848
-0.0422845
-0.0485719
-0.0567275
-0.0660585
-0.0758562
-0.085363
-0.0937477
-0.100086
-0.103338
-0.102333
-0.0956787
-0.0821072
-0.0597824
-0.0267262
0.0194455
0.0818437
0.164831
0.27489
0.420557
0.608866
0.898377
-0.649101
-0.236882
-0.10744
-0.0625203
-0.0379135
-0.0241854
-0.0184475
-0.0180506
-0.021314
-0.0273134
-0.0354054
-0.045007
-0.0555282
-0.0663388
-0.0767419
-0.0859527
-0.0930836
-0.097134
-0.0969987
-0.091494
-0.0788719
-0.0575961
-0.025672
0.0194885
0.0815736
0.166805
0.287629
0.472396
0.778522
1.37237
)
;

boundaryField
{
    movingWall
    {
        type            zeroGradient;
    }
    fixedWalls
    {
        type            zeroGradient;
    }
    frontAndBack
    {
        type            empty;
    }
}


// ************************************************************************* //
