/*--------------------------------*- C++ -*----------------------------------*\
  =========                 |
  \\      /  F ield         | OpenFOAM: The Open Source CFD Toolbox
   \\    /   O peration     | Website:  https://openfoam.org
    \\  /    A nd           | Version:  7
     \\/     M anipulation  |
\*---------------------------------------------------------------------------*/
FoamFile
{
    version     2.0;
    format      ascii;
    class       surfaceScalarField;
    location    "9.8";
    object      phi;
}
// * * * * * * * * * * * * * * * * * * * * * * * * * * * * * * * * * * * * * //

dimensions      [0 3 -1 0 0 0 0];

internalField   nonuniform List<scalar> 
1740
(
8.59901e-07
-8.58457e-07
5.41318e-07
3.18611e-07
-1.40631e-06
1.94763e-06
-4.81834e-06
3.41203e-06
-9.3396e-06
4.52126e-06
-1.46114e-05
5.27179e-06
-2.03313e-05
5.7199e-06
-2.6253e-05
5.9217e-06
-3.21636e-05
5.91058e-06
-3.78584e-05
5.69477e-06
-4.31222e-05
5.26383e-06
-4.7721e-05
4.59886e-06
-5.14049e-05
3.68382e-06
-5.39212e-05
2.51631e-06
-5.5038e-05
1.11686e-06
-5.45725e-05
-4.65532e-07
-5.24229e-05
-2.14958e-06
-4.85991e-05
-3.82381e-06
-4.32449e-05
-5.35422e-06
-3.6647e-05
-6.59792e-06
-2.92265e-05
-7.4205e-06
-2.15104e-05
-7.71618e-06
-1.40834e-05
-7.42693e-06
-7.5266e-06
-6.55683e-06
-2.34683e-06
-5.17977e-06
1.09782e-06
-3.44465e-06
2.66946e-06
-1.57165e-06
2.49415e-06
1.753e-07
1.17543e-06
1.3187e-06
1.1754e-06
-3.00715e-07
-5.57714e-07
-3.52302e-06
3.54089e-06
-1.02781e-05
8.70272e-06
-2.01859e-05
1.33198e-05
-3.25807e-05
1.6916e-05
-4.67321e-05
1.94232e-05
-6.19482e-05
2.0936e-05
-7.76007e-05
2.15742e-05
-9.31057e-05
2.14155e-05
-0.000107892
2.04807e-05
-0.000121374
1.87467e-05
-0.00013295
1.61748e-05
-0.000142009
1.27422e-05
-0.000147966
8.47398e-06
-0.000150318
3.46803e-06
-0.000148701
-2.08224e-06
-0.000142944
-7.90616e-06
-0.000133144
-1.36242e-05
-0.000119689
-1.88094e-05
-0.000103275
-2.3012e-05
-8.488e-05
-2.58152e-05
-6.57014e-05
-2.68948e-05
-4.70519e-05
-2.60764e-05
-3.0228e-05
-2.33807e-05
-1.63589e-05
-1.90489e-05
-6.25587e-06
-1.35477e-05
-2.63225e-07
-7.56429e-06
1.95084e-06
-2.03874e-06
1.37715e-06
1.89242e-06
2.55253e-06
-2.12267e-06
1.56496e-06
-9.34057e-06
1.07588e-05
-2.15241e-05
2.08862e-05
-3.79901e-05
2.97859e-05
-5.78061e-05
3.6732e-05
-7.99776e-05
4.15947e-05
-0.000103541
4.44994e-05
-0.000127586
4.56193e-05
-0.00015124
4.50691e-05
-0.000173636
4.28773e-05
-0.000193899
3.90093e-05
-0.000211139
3.34153e-05
-0.000224484
2.60871e-05
-0.000233124
1.71135e-05
-0.000236381
6.72486e-06
-0.000233781
-4.68228e-06
-0.000225138
-1.65486e-05
-0.00021062
-2.81424e-05
-0.00019079
-3.86401e-05
-0.000166618
-4.71839e-05
-0.000139452
-5.29807e-05
-0.000110937
-5.541e-05
-8.28819e-05
-5.41316e-05
-5.70896e-05
-4.9173e-05
-3.51549e-05
-4.09835e-05
-1.8255e-05
-3.04476e-05
-6.95007e-06
-1.88693e-05
-1.0464e-06
-7.94243e-06
5.8554e-07
2.60484e-07
3.13807e-06
-4.09477e-06
5.65972e-06
-1.55975e-05
2.22616e-05
-3.34768e-05
3.87654e-05
-5.65357e-05
5.28449e-05
-8.35155e-05
6.37118e-05
-0.00011318
7.1259e-05
-0.000144353
7.56724e-05
-0.000175916
7.71823e-05
-0.000206781
7.59341e-05
-0.000235862
7.19588e-05
-0.000262063
6.521e-05
-0.000284283
5.5635e-05
-0.000301454
4.32582e-05
-0.000312599
2.8259e-05
-0.000316909
1.10348e-05
-0.000313823
-7.76899e-06
-0.000303116
-2.72555e-05
-0.000284974
-4.62839e-05
-0.000260046
-6.35685e-05
-0.000229459
-7.77707e-05
-0.000194798
-8.76414e-05
-0.000158023
-9.21851e-05
-0.000121328
-9.08261e-05
-8.69484e-05
-8.35531e-05
-5.69169e-05
-7.10151e-05
-3.28142e-05
-5.45502e-05
-1.55314e-05
-3.61521e-05
-5.09024e-06
-1.83836e-05
-5.595e-07
-4.27026e-06
2.57856e-06
-6.01668e-06
1.16764e-05
-2.17982e-05
3.80431e-05
-4.53549e-05
6.23221e-05
-7.48881e-05
8.2378e-05
-0.000108765
9.75889e-05
-0.000145507
0.000108001
-0.000183759
0.000113924
-0.000222246
0.000115669
-0.000259726
0.000113415
-0.000294961
0.000107193
-0.000326695
9.69437e-05
-0.000353673
8.26135e-05
-0.000374681
6.4266e-05
-0.000388604
4.21817e-05
-0.000394505
1.69362e-05
-0.000391715
-1.05587e-05
-0.000379917
-3.9054e-05
-0.000359233
-6.69677e-05
-0.000330292
-9.25095e-05
-0.000294267
-0.000113796
-0.000252872
-0.000129036
-0.0002083
-0.000136757
-0.000163086
-0.00013604
-0.0001199
-0.000126739
-8.12694e-05
-0.000109646
-4.92778e-05
-8.65418e-05
-2.52745e-05
-6.01553e-05
-9.66036e-06
-3.39978e-05
-1.78949e-06
-1.21411e-05
7.89075e-07
-7.81686e-06
1.94932e-05
-2.76911e-05
5.79174e-05
-5.67026e-05
9.13336e-05
-9.24354e-05
0.000118111
-0.000132869
0.000138023
-0.000176288
0.000151419
-0.000221181
0.000158818
-0.00026616
0.000160648
-0.000309884
0.000157138
-0.000351011
0.00014832
-0.000388184
0.000134117
-0.000420042
0.000114471
-0.00044525
8.94741e-05
-0.000462566
5.9498e-05
-0.000470912
2.52822e-05
-0.000469462
-1.20086e-05
-0.000457729
-5.07867e-05
-0.000435674
-8.90229e-05
-0.000403789
-0.000124394
-0.000363174
-0.000154411
-0.000315571
-0.000176639
-0.000263339
-0.00018899
-0.000209339
-0.00019004
-0.000156722
-0.000179356
-0.000108618
-0.00015775
-6.77617e-05
-0.000127398
-3.61289e-05
-9.17881e-05
-1.46484e-05
-5.54783e-05
-3.07007e-06
-2.37195e-05
-2.28099e-06
-9.46291e-06
2.89561e-05
-3.31243e-05
8.15788e-05
-6.72106e-05
0.00012542
-0.000108722
0.000159623
-0.00015527
0.000184571
-0.000204916
0.000201066
-0.000256024
0.000209926
-0.000307128
0.000211751
-0.00035683
0.00020684
-0.000403739
0.00019523
-0.000446442
0.00017682
-0.000483503
0.000151532
-0.000513495
0.000119467
-0.000535049
8.1052e-05
-0.000546918
3.71508e-05
-0.000548066
-1.08602e-05
-0.000537752
-6.11008e-05
-0.000515666
-0.000111109
-0.000482037
-0.000158023
-0.000437762
-0.000198686
-0.000384493
-0.000229908
-0.000324676
-0.000248807
-0.000261475
-0.00025324
-0.00019858
-0.000242252
-0.000139851
-0.000216479
-8.88694e-05
-0.000178379
-4.84462e-05
-0.000132211
-2.0221e-05
-8.37035e-05
-4.45035e-06
-3.94902e-05
-6.73134e-06
-1.09262e-05
3.98823e-05
-3.79737e-05
0.000108626
-7.66213e-05
0.000164067
-0.000123353
0.000206354
-0.000175448
0.000236666
-0.000230782
0.000256399
-0.00028762
0.000266764
-0.000344454
0.000268585
-0.000399873
0.000262259
-0.000452479
0.000247836
-0.000500842
0.000225184
-0.000543492
0.000194182
-0.000578928
0.000154902
-0.000605655
0.000107778
-0.000622235
5.37311e-05
-0.00062738
-5.71487e-06
-0.000620012
-6.84689e-05
-0.000599447
-0.000131674
-0.000565522
-0.000191948
-0.000518779
-0.000245429
-0.000460637
-0.00028805
-0.000393504
-0.00031594
-0.000320789
-0.000325955
-0.000246742
-0.000316299
-0.000176089
-0.000287132
-0.000113474
-0.000240994
-6.28091e-05
-0.000182876
-2.66866e-05
-0.000119826
-6.02872e-06
-6.0148e-05
-1.27601e-05
-1.21713e-05
5.20536e-05
-4.21125e-05
0.000138567
-8.46829e-05
0.000206638
-0.000135935
0.000257606
-0.000192877
0.000293608
-0.00025323
0.000316752
-0.000315196
0.00032873
-0.000377259
0.000330649
-0.000438032
0.000323031
-0.000496149
0.000305953
-0.000550207
0.000279242
-0.000598733
0.000242708
-0.00064018
0.00019635
-0.000672945
0.000140543
-0.000695398
7.6184e-05
-0.000705955
4.84274e-06
-0.000703173
-7.12513e-05
-0.000685892
-0.000148955
-0.000653431
-0.000224409
-0.00060582
-0.00029304
-0.000544056
-0.000349814
-0.00047033
-0.000389666
-0.000388156
-0.000408129
-0.000302304
-0.000402151
-0.000218453
-0.000370983
-0.000142542
-0.000316905
-7.99073e-05
-0.000245511
-3.44227e-05
-0.000165311
-7.92516e-06
-8.66456e-05
-2.06852e-05
-1.31571e-05
6.52107e-05
-4.54079e-05
0.000170818
-9.114e-05
0.00025237
-0.000146075
0.000312542
-0.00020701
0.000354543
-0.000271555
0.000381297
-0.00033788
0.000395055
-0.00040449
0.000397259
-0.000470053
0.000388594
-0.000533274
0.000369174
-0.000592816
0.000338784
-0.000647246
0.000297138
-0.00069501
0.000244114
-0.000734428
0.00017996
-0.000763705
0.000105462
-0.000780967
2.2104e-05
-0.000784396
-6.78217e-05
-0.000772301
-0.00016105
-0.000743381
-0.00025333
-0.000696991
-0.00033943
-0.000633489
-0.000413316
-0.000554594
-0.00046856
-0.000463684
-0.000499039
-0.000365889
-0.000499947
-0.000267843
-0.000469029
-0.000176985
-0.000407763
-0.000100449
-0.000322047
-4.38338e-05
-0.000221926
-1.0269e-05
-0.00012021
-3.09542e-05
-1.38414e-05
7.9052e-05
-4.77299e-05
0.000204707
-9.57467e-05
0.000300387
-0.000153389
0.000370184
-0.000217306
0.000418459
-0.000285035
0.000449026
-0.000354739
0.000464758
-0.000424968
0.000467488
-0.000494473
0.0004581
-0.000562064
0.000436765
-0.000626508
0.000403227
-0.000686457
0.000357087
-0.000740406
0.000298063
-0.000786654
0.000226208
-0.0008233
0.000142108
-0.000848255
4.70594e-05
-0.000859327
-5.67501e-05
-0.000854316
-0.00016606
-0.000831243
-0.000276403
-0.00078865
-0.000382022
-0.000726024
-0.000475942
-0.000644294
-0.00055029
-0.000546337
-0.000596996
-0.000437328
-0.000608956
-0.000324702
-0.000581655
-0.00021751
-0.000514954
-0.000125086
-0.000414471
-5.53229e-05
-0.000291689
-1.31938e-05
-0.000162339
-4.4148e-05
-1.41881e-05
9.32401e-05
-4.89687e-05
0.000239488
-9.82932e-05
0.000349711
-0.000157541
0.000429432
-0.000223274
0.000484192
-0.000292987
0.000518739
-0.000364855
0.000536626
-0.000437489
0.000540122
-0.000509744
0.000530355
-0.000580561
0.000507582
-0.000648849
0.000471515
-0.000713401
0.000421639
-0.000772822
0.000357484
-0.000825476
0.000278862
-0.00086945
0.000186082
-0.000902541
8.01508e-05
-0.000922284
-3.70071e-05
-0.000926043
-0.000162302
-0.000911171
-0.000291275
-0.000875318
-0.000417875
-0.000816891
-0.000534369
-0.000735676
-0.000631505
-0.000633579
-0.000699093
-0.000515313
-0.000727222
-0.000388738
-0.00070823
-0.00026445
-0.000639242
-0.000154333
-0.000524587
-6.92667e-05
-0.000376756
-1.68349e-05
-0.000214771
-6.09829e-05
-1.41748e-05
0.000107415
-4.90557e-05
0.000274368
-9.86414e-05
0.000399297
-0.000158295
0.000489086
-0.00022454
0.000550437
-0.000294855
0.000589054
-0.000367434
0.000609205
-0.000440959
0.000613647
-0.0005144
0.000603796
-0.000586851
0.000580033
-0.000657403
0.000542067
-0.000725039
0.000489275
-0.000788551
0.000420995
-0.000846466
0.000336777
-0.000896985
0.000236601
-0.000937938
0.000121103
-0.000966738
-8.20706e-06
-0.000980472
-0.000148568
-0.000975922
-0.000295825
-0.00094986
-0.000443937
-0.000899478
-0.000584751
-0.000823094
-0.00070789
-0.000721105
-0.000801083
-0.000597079
-0.000851249
-0.000458638
-0.00084667
-0.00031756
-0.00078032
-0.000188468
-0.00065368
-8.59843e-05
-0.00047924
-2.13263e-05
-0.000279429
-8.23092e-05
-1.38008e-05
0.000121216
-4.79865e-05
0.000308554
-9.67654e-05
0.000448076
-0.000155569
0.000547889
-0.000220923
0.000615792
-0.000290303
0.000658434
-0.000361928
0.000680829
-0.000434549
0.000686269
-0.000507261
0.000676508
-0.000579327
0.0006521
-0.00065005
0.00061279
-0.000718656
0.000557881
-0.0007842
0.00048654
-0.00084548
0.000398056
-0.000900949
0.000292071
-0.000948637
0.000168791
-0.000986068
2.92245e-05
-0.00101022
-0.000124417
-0.00101754
-0.000288508
-0.00100404
-0.000457433
-0.000965708
-0.000623083
-0.000899161
-0.000774436
-0.000802777
-0.000897466
-0.000678176
-0.00097585
-0.000531786
-0.00099306
-0.000375794
-0.000936312
-0.000227407
-0.000802067
-0.000105696
-0.000600952
-2.67959e-05
-0.000358329
-0.000109105
-1.30949e-05
0.000134311
-4.5845e-05
0.000341304
-9.2794e-05
0.000495025
-0.0001495
0.000604595
-0.000212518
0.000678811
-0.000279326
0.000725241
-0.000348167
0.00074967
-0.000417866
0.000755968
-0.000487644
0.000746285
-0.00055695
0.000721406
-0.000625326
0.000681166
-0.000692287
0.000624842
-0.000757221
0.000551473
-0.000819292
0.000460128
-0.000877345
0.000350123
-0.000929788
0.000221233
-0.000974469
7.39061e-05
-0.00100852
-9.03645e-05
-0.00102834
-0.000268688
-0.00102946
-0.000456312
-0.00100681
-0.000645732
-0.000955292
-0.000825959
-0.000870882
-0.000981876
-0.000752456
-0.00109428
-0.000604072
-0.00114144
-0.000437075
-0.00110331
-0.000270555
-0.000968586
-0.000128469
-0.000743038
-3.33576e-05
-0.00045344
-0.000142463
-1.21232e-05
0.000146434
-4.28264e-05
0.000372007
-8.70511e-05
0.000539249
-0.000140501
0.000658045
-0.000199767
0.000738076
-0.000262332
0.000787806
-0.000326471
0.000813809
-0.000391088
0.000820585
-0.00045554
0.000810738
-0.00051948
0.000785346
-0.000582713
0.000744399
-0.000645081
0.00068721
-0.000706359
0.000612751
-0.00076616
0.00051993
-0.000823828
0.000407791
-0.000878306
0.000275711
-0.00092797
0.00012357
-0.000970311
-4.80231e-05
-0.00100213
-0.00023687
-0.00101878
-0.000439663
-0.00101449
-0.000650017
-0.000982662
-0.000857789
-0.000916789
-0.00104775
-0.000812385
-0.00119868
-0.000669891
-0.00128394
-0.000498134
-0.00127507
-0.00031666
-0.00115006
-0.000154155
-0.000905543
-4.11026e-05
-0.000566492
-0.000183565
-1.0996e-05
0.00015743
-3.92603e-05
0.000400272
-8.00961e-05
0.000580085
-0.000129313
0.000707262
-0.000183521
0.000792284
-0.000240218
0.000844503
-0.000297727
0.000871318
-0.000355056
0.000877914
-0.000411726
0.000867408
-0.000467613
0.000841233
-0.000522813
0.000799599
-0.000577523
0.00074192
-0.000631945
0.000667173
-0.000686188
0.000574173
-0.000740163
0.000461766
-0.000793447
0.000328995
-0.000845171
0.000175293
-0.000893136
-5.81007e-08
-0.000935288
-0.000194718
-0.000966928
-0.000408023
-0.000982188
-0.000634756
-0.000973444
-0.000866534
-0.000931984
-0.00108921
-0.000849718
-0.00128095
-0.000722424
-0.00141123
-0.000554485
-0.00144301
-0.000363685
-0.00134086
-0.000182332
-0.0010869
-5.00935e-05
-0.000698731
-0.000233659
-9.87741e-06
0.000167307
-3.56381e-05
0.000426033
-7.27649e-05
0.000617212
-0.00011705
0.000751547
-0.000165085
0.000840319
-0.000214401
0.00089382
-0.000263419
0.000920336
-0.0003113
0.000925795
-0.000357777
0.000913884
-0.000402992
0.000886449
-0.00044736
0.000843967
-0.000491456
0.000786016
-0.000535921
0.000711638
-0.000581373
0.000619625
-0.000628307
0.000508701
-0.00067696
0.000377648
-0.000727054
0.000225387
-0.000778145
5.10329e-05
-0.000827486
-0.000145378
-0.000872047
-0.000363462
-0.000906218
-0.000600586
-0.000922043
-0.000850708
-0.000909263
-0.00110199
-0.000856475
-0.00133373
-0.000754217
-0.00151349
-0.000600597
-0.00159663
-0.000408766
-0.00153269
-0.000212261
-0.0012834
-6.03706e-05
-0.000850622
-0.000294029
-9.00289e-06
0.00017631
-3.26549e-05
0.000449685
-6.6222e-05
0.000650779
-0.000105248
0.000790573
-0.000146245
0.000881316
-0.000186825
0.000934399
-0.000225595
0.000959106
-0.000261969
0.000962169
-0.000295975
0.00094789
-0.000328079
0.000918552
-0.000359053
0.000874941
-0.000389867
0.00081683
-0.000421601
0.000743372
-0.000455366
0.00065339
-0.000492216
0.00054555
-0.000533024
0.000418456
-0.000578334
0.000270698
-0.000628198
0.000100896
-0.000681425
-9.21499e-05
-0.000735647
-0.00030924
-0.000786292
-0.000549941
-0.000825929
-0.00081107
-0.00084376
-0.00108416
-0.000825951
-0.00135154
-0.000757951
-0.00158149
-0.000630264
-0.00172431
-0.000448244
-0.00171471
-0.000242866
-0.00148878
-7.19814e-05
-0.00102151
-0.000366011
-8.71395e-06
0.000185024
-3.12815e-05
0.000472252
-6.20392e-05
0.000681537
-9.5913e-05
0.000824447
-0.000129272
0.000914675
-0.000159907
0.000965035
-0.000186773
0.000985971
-0.000209691
0.000985088
-0.000229105
0.000967304
-0.000245889
0.000935336
-0.000261216
0.000890269
-0.000276461
0.000832075
-0.000293123
0.000760033
-0.000312758
0.000673026
-0.000336912
0.000569704
-0.000367012
0.000448556
-0.000404259
0.000307944
-0.000449422
0.00014606
-0.000502459
-3.9113e-05
-0.000562132
-0.000249566
-0.000625262
-0.000486811
-0.000685738
-0.000750595
-0.00073342
-0.00103648
-0.000753438
-0.00133152
-0.000727159
-0.00160777
-0.000637061
-0.00181441
-0.00047779
-0.00187398
-0.00027274
-0.00169383
-8.50445e-05
-0.0012092
-0.000451055
-9.53136e-06
0.000194555
-3.28959e-05
0.000495617
-6.23158e-05
0.000710957
-9.15815e-05
0.000853712
-0.000116895
0.000939988
-0.000136431
0.000984571
-0.000149747
0.000999287
-0.000157298
0.000992639
-0.000160108
0.000970113
-0.00015956
0.000934788
-0.000157275
0.000887984
-0.000155029
0.000829829
-0.000154699
0.000759703
-0.000158218
0.000676545
-0.000167542
0.000579028
-0.000184507
0.000465521
-0.000210826
0.000334263
-0.000247987
0.000183221
-0.00029681
9.70916e-06
-0.000357296
-0.000189081
-0.000427895
-0.000416212
-0.000504444
-0.000674046
-0.000578643
-0.000962277
-0.000636319
-0.00127385
-0.000656585
-0.0015875
-0.000614664
-0.00185633
-0.000492477
-0.00199617
-0.000300097
-0.00188621
-9.98419e-05
-0.00140946
-0.000550897
-1.23002e-05
0.000206856
-3.95085e-05
0.000522825
-6.9846e-05
0.000741294
-9.53474e-05
0.000879214
-0.000112175
0.000956816
-0.000119275
0.000991671
-0.000117198
0.000997211
-0.000107337
0.000982778
-9.14932e-05
0.000954269
-7.1666e-05
0.000914961
-4.99604e-05
0.000866278
-2.85411e-05
0.00080841
-9.6203e-06
0.000740783
4.58993e-06
0.000662334
1.19316e-05
0.000571686
1.01508e-05
0.000467302
-2.84774e-06
0.000347261
-2.88253e-05
0.000209199
-6.96111e-05
5.0495e-05
-0.000126289
-0.000132403
-0.00019894
-0.00034356
-0.000285704
-0.000587282
-0.000381081
-0.000866901
-0.00047338
-0.00118155
-0.000541929
-0.00151895
-0.000556795
-0.00184147
-0.000486644
-0.00206632
-0.000322577
-0.00205028
-0.000116894
-0.00161514
-0.000667791
-1.84646e-05
0.00022532
-5.41008e-05
0.000558461
-8.82615e-05
0.000775455
-0.000110704
0.000901656
-0.000118055
0.000964166
-0.00011072
0.000984336
-9.08097e-05
0.000977301
-6.1026e-05
0.000952994
-2.41604e-05
0.000917404
1.70841e-05
0.000873716
6.01258e-05
0.000823236
0.000102461
0.000766075
0.00014165
0.000701594
0.000175283
0.000628701
0.000200953
0.000546016
0.000216327
0.000451928
0.000219074
0.000344515
0.00020682
0.000221452
0.000177405
7.99105e-05
0.000128744
-8.37418e-05
5.92239e-05
-0.00027404
-3.16415e-05
-0.000496417
-0.00014173
-0.000756812
-0.00026344
-0.00105984
-0.000378894
-0.0014035
-0.00045658
-0.00176378
-0.000453297
-0.0020696
-0.000336668
-0.0021669
-0.000136867
-0.00181494
-0.000804659
-3.05516e-05
0.000255872
-8.10042e-05
0.000608914
-0.000121837
0.000816288
-0.000140686
0.000920506
-0.000135929
0.000959409
-0.000110583
0.00095899
-6.90713e-05
0.000935789
-1.58177e-05
0.000899741
4.52214e-05
0.000856365
0.000110606
0.000808332
0.000177303
0.00075654
0.000242563
0.000700815
0.000303808
0.000640349
0.000358549
0.00057396
0.000404338
0.000500228
0.00043873
0.000417535
0.000459238
0.000324007
0.000463281
0.000217409
0.000448173
9.50184e-05
0.000411066
-4.66342e-05
0.000349076
-0.000212051
0.000259576
-0.000406917
0.000141345
-0.000638581
-2.78929e-06
-0.000915706
-0.000161528
-0.00124476
-0.000305215
-0.00162009
-0.000382808
-0.00199201
-0.000336389
-0.00221332
-0.000159956
-0.00199137
-0.000964615
-5.29146e-05
0.000308786
-0.000125872
0.000681872
-0.000173905
0.000864321
-0.000184823
0.000931423
-0.000161495
0.000936081
-0.000111307
0.000908803
-4.18905e-05
0.000866372
4.02579e-05
0.000817592
0.00012996
0.000766663
0.00022312
0.000715172
0.000316404
0.000663255
0.000406969
0.000610251
0.000492247
0.00055507
0.000569811
0.000496396
0.000637266
0.000432773
0.000692178
0.000362623
0.000731994
0.000284191
0.000753956
0.000195447
0.000755013
9.39614e-05
0.00073168
-2.33004e-05
0.000680104
-0.000160475
0.000595901
-0.000322714
0.000474787
-0.000517467
0.000314309
-0.000755228
0.000119189
-0.00104964
-8.94693e-05
-0.00141144
-0.000260412
-0.00182107
-0.000310548
-0.00216319
-0.000184056
-0.00211787
-0.00114867
-9.24463e-05
0.000401233
-0.000193457
0.000782882
-0.00024065
0.000911514
-0.000229935
0.000920708
-0.000173739
0.000879885
-8.60868e-05
0.000821151
2.14656e-05
0.000758819
0.000140367
0.000698691
0.000264525
0.000642505
0.000389568
0.000590129
0.000512222
0.000540601
0.000629856
0.000492617
0.000740172
0.000444753
0.000841004
0.000395564
0.000930173
0.000343603
0.00100539
0.000287406
0.00106415
0.000225431
0.00110363
0.00015597
0.00112054
7.7049e-05
0.00111091
-1.36757e-05
0.0010703
-0.000119865
0.000993021
-0.00024543
0.000872547
-0.000396993
0.000702127
-0.000584809
0.000478014
-0.000825525
0.000209464
-0.00114289
-6.02079e-05
-0.0015514
-0.000237617
-0.00198578
-0.000201611
-0.00215387
-0.00135028
-0.000157313
0.000558546
-0.000275879
0.000901448
-0.000290631
0.000926266
-0.000225256
0.000855332
-0.000109109
0.000763738
3.57729e-05
0.000676269
0.000194717
0.000599875
0.000358457
0.000534951
0.000521263
0.000479699
0.000679534
0.000431859
0.000830847
0.000389287
0.000973375
0.000350089
0.00110552
0.000312607
0.0012257
0.000275382
0.00133221
0.000237097
0.0014231
0.00019652
0.00149609
0.000152435
0.0015485
0.000103566
0.00157701
4.85324e-05
0.00157753
-1.41917e-05
0.00154526
-8.75985e-05
0.00147387
-0.000174036
0.0013555
-0.000278623
0.00118037
-0.000409675
0.000937518
-0.000582675
0.000621001
-0.000826369
0.000252194
-0.00118259
-7.62888e-05
-0.0016573
-0.000193058
-0.0020371
-0.00154334
-0.000243931
0.000802476
-0.000303332
0.000960849
-0.000204205
0.000827139
-2.42742e-05
0.000675402
0.000187589
0.000551875
0.00040739
0.000456468
0.00062326
0.000384005
0.000829534
0.000328678
0.00102378
0.000285455
0.00120508
0.000250555
0.00137312
0.00022125
0.00152767
0.000195538
0.00166837
0.000171903
0.0017946
0.000149156
0.00190537
0.000126321
0.00199934
0.000102558
0.00207467
7.70982e-05
0.00212905
4.91888e-05
0.00215949
1.80889e-05
0.00216253
-1.72335e-05
0.00213306
-5.81222e-05
0.00206509
-0.000106066
0.0019505
-0.000164034
0.00177811
-0.000237287
0.00153216
-0.00033672
0.00119227
-0.000486483
0.00074735
-0.000737671
0.000254396
-0.00116434
-8.07193e-05
-0.00170199
-0.00162406
-0.000194566
0.000997042
1.76978e-05
0.000748585
0.000372436
0.000472401
0.000713732
0.000334106
0.00102016
0.000245444
0.00129142
0.000185209
0.00153079
0.000144641
0.00174253
0.000116935
0.00193076
9.72246e-05
0.00209884
8.24738e-05
0.00224927
7.08225e-05
0.00238373
6.10751e-05
0.00250321
5.24224e-05
0.00260807
4.42917e-05
0.00269814
3.62568e-05
0.00277272
2.79816e-05
0.00283063
1.91839e-05
0.00287017
9.64896e-06
0.00288888
-6.26349e-07
0.00288484
-1.31875e-05
0.00285328
-2.65637e-05
0.00278968
-4.24693e-05
0.00268724
-6.15931e-05
0.00253578
-8.58266e-05
0.00231858
-0.000119521
0.00200628
-0.000174177
0.00155165
-0.000283047
0.000927476
-0.000540163
0.000263873
-0.00103838
-0.00136019
0.000997042
0.00174563
0.00221803
0.00255213
0.00279758
0.00298279
0.00312743
0.00324436
0.00334159
0.00342406
0.00349488
0.00355596
0.00360838
0.00365267
0.00368893
0.00371691
0.0037361
0.00374574
0.00374512
0.00373193
0.00370537
0.0036629
0.0036013
0.00351548
0.00339596
0.00322178
0.00293873
0.00239857
0.00136019
)
;

boundaryField
{
    movingWall
    {
        type            calculated;
        value           uniform 0;
    }
    fixedWalls
    {
        type            calculated;
        value           uniform 0;
    }
    frontAndBack
    {
        type            empty;
        value           nonuniform 0();
    }
}


// ************************************************************************* //
