/*--------------------------------*- C++ -*----------------------------------*\
  =========                 |
  \\      /  F ield         | OpenFOAM: The Open Source CFD Toolbox
   \\    /   O peration     | Website:  https://openfoam.org
    \\  /    A nd           | Version:  7
     \\/     M anipulation  |
\*---------------------------------------------------------------------------*/
FoamFile
{
    version     2.0;
    format      ascii;
    class       volVectorField;
    location    "9.8";
    object      U;
}
// * * * * * * * * * * * * * * * * * * * * * * * * * * * * * * * * * * * * * //

dimensions      [0 1 -1 0 0 0 0];

internalField   nonuniform List<vector> 
900
(
(0.000166032 -0.000164722 0)
(0.000296213 -7.22248e-05 0)
(-2.59018e-05 9.76794e-05 0)
(-0.000810415 0.000247439 0)
(-0.00196495 0.00035593 0)
(-0.00338375 0.000425814 0)
(-0.00497149 0.000466513 0)
(-0.00665001 0.000486282 0)
(-0.0083547 0.000489727 0)
(-0.010027 0.000477909 0)
(-0.0116074 0.000449335 0)
(-0.013032 0.000401208 0)
(-0.014231 0.000330712 0)
(-0.0151314 0.000236228 0)
(-0.0156625 0.000118415 0)
(-0.0157633 -1.90516e-05 0)
(-0.0153914 -0.000169478 0)
(-0.0145323 -0.000322092 0)
(-0.0132072 -0.00046366 0)
(-0.0114776 -0.000579628 0)
(-0.009446 -0.000655985 0)
(-0.00724996 -0.000681469 0)
(-0.0050515 -0.000649639 0)
(-0.00302079 -0.000560381 0)
(-0.00131644 -0.000420702 0)
(-6.58497e-05 -0.000245455 0)
(0.000651262 -5.64317e-05 0)
(0.000824231 0.000119904 0)
(0.000562315 0.00022618 0)
(0.00017305 0.000171931 0)
(8.0967e-05 -0.000303446 0)
(-0.000297789 0.000295285 0)
(-0.0017403 0.00114104 0)
(-0.004161 0.00190315 0)
(-0.00739416 0.00248984 0)
(-0.011235 0.00289355 0)
(-0.015476 0.00313726 0)
(-0.019928 0.00324644 0)
(-0.0244195 0.00323693 0)
(-0.0287871 0.00311284 0)
(-0.0328668 0.00286938 0)
(-0.0364885 0.0024979 0)
(-0.039477 0.00199158 0)
(-0.0416588 0.00135098 0)
(-0.0428747 0.000588586 0)
(-0.0429966 -0.000268101 0)
(-0.0419446 -0.00117479 0)
(-0.0397049 -0.00207213 0)
(-0.0363453 -0.00288974 0)
(-0.0320214 -0.00355295 0)
(-0.0269755 -0.00399198 0)
(-0.0215234 -0.00415224 0)
(-0.0160314 -0.00400412 0)
(-0.0108815 -0.00355051 0)
(-0.0064302 -0.00283087 0)
(-0.00296379 -0.00192274 0)
(-0.000652706 -0.000940739 0)
(0.000473885 -3.74432e-05 0)
(0.000607417 0.000571838 0)
(0.000234192 0.000559745 0)
(-0.000105723 2.3972e-05 0)
(-0.00125187 0.00176083 0)
(-0.00407067 0.00383072 0)
(-0.0082349 0.00568159 0)
(-0.0134859 0.00713185 0)
(-0.0195528 0.0081493 0)
(-0.0261529 0.00876401 0)
(-0.0330174 0.00901764 0)
(-0.0398932 0.00893792 0)
(-0.0465335 0.00853214 0)
(-0.0526901 0.00779206 0)
(-0.0581096 0.00670438 0)
(-0.0625377 0.00526331 0)
(-0.0657298 0.00348263 0)
(-0.0674685 0.00140553 0)
(-0.0675841 -0.00088906 0)
(-0.0659775 -0.00328415 0)
(-0.0626425 -0.00563033 0)
(-0.0576817 -0.00775473 0)
(-0.0513153 -0.00947725 0)
(-0.0438781 -0.0106315 0)
(-0.0358046 -0.0110882 0)
(-0.027598 -0.0107778 0)
(-0.0197868 -0.00970856 0)
(-0.0128705 -0.00797726 0)
(-0.00725891 -0.00577157 0)
(-0.00321325 -0.00336804 0)
(-0.000797587 -0.0011323 0)
(0.00017476 0.000486539 0)
(0.000170613 0.000872778 0)
(-0.000304223 0.000912588 0)
(-0.00228379 0.00443045 0)
(-0.00657785 0.00813067 0)
(-0.0125366 0.0113516 0)
(-0.0197735 0.0138611 0)
(-0.0279507 0.0156171 0)
(-0.0367242 0.0166602 0)
(-0.0457658 0.0170466 0)
(-0.054762 0.0168136 0)
(-0.0634038 0.0159698 0)
(-0.0713796 0.0145037 0)
(-0.0783736 0.0124001 0)
(-0.0840728 0.00966047 0)
(-0.0881802 0.00632158 0)
(-0.0904351 0.00247079 0)
(-0.0906358 -0.00174487 0)
(-0.0886651 -0.00611784 0)
(-0.0845134 -0.0103867 0)
(-0.0782977 -0.0142534 0)
(-0.0702722 -0.0174088 0)
(-0.060828 -0.0195669 0)
(-0.0504785 -0.0205028 0)
(-0.0398283 -0.0200915 0)
(-0.0295244 -0.0183398 0)
(-0.0201934 -0.0154065 0)
(-0.0123696 -0.0116078 0)
(-0.0064213 -0.00741074 0)
(-0.00248587 -0.00341858 0)
(-0.000437895 -0.000352185 0)
(7.31876e-05 0.000894927 0)
(-0.000492284 0.00236275 0)
(-0.00329822 0.00833512 0)
(-0.00907174 0.0140597 0)
(-0.0168103 0.0188799 0)
(-0.0259793 0.0225774 0)
(-0.0361678 0.0251332 0)
(-0.0469764 0.0266125 0)
(-0.0580301 0.0270901 0)
(-0.0689722 0.0266116 0)
(-0.07945 0.025186 0)
(-0.0891067 0.0227981 0)
(-0.0975821 0.0194329 0)
(-0.10452 0.015103 0)
(-0.109581 0.00987385 0)
(-0.112468 0.00388392 0)
(-0.112945 -0.00264396 0)
(-0.110866 -0.00940182 0)
(-0.106198 -0.0160052 0)
(-0.0990442 -0.0220166 0)
(-0.0896623 -0.0269801 0)
(-0.0784664 -0.0304681 0)
(-0.0660208 -0.0321363 0)
(-0.0530121 -0.0317799 0)
(-0.0401999 -0.0293849 0)
(-0.0283465 -0.0251625 0)
(-0.0181329 -0.0195602 0)
(-0.0100677 -0.0132497 0)
(-0.00440276 -0.00709302 0)
(-0.00111587 -0.00209708 0)
(-2.43329e-05 0.000567511 0)
(-0.000664373 0.00434694 0)
(-0.00425443 0.0134455 0)
(-0.0114498 0.0215907 0)
(-0.0208981 0.0282281 0)
(-0.0319117 0.0332206 0)
(-0.0440045 0.036614 0)
(-0.0567258 0.0385197 0)
(-0.0696642 0.0390405 0)
(-0.0824333 0.0382332 0)
(-0.0946524 0.0361064 0)
(-0.105936 0.0326411 0)
(-0.115894 0.0278218 0)
(-0.124137 0.0216723 0)
(-0.130293 0.0142867 0)
(-0.134024 0.00585446 0)
(-0.135053 -0.00332602 0)
(-0.133185 -0.0128449 0)
(-0.12834 -0.0221902 0)
(-0.120578 -0.0307751 0)
(-0.110121 -0.0379791 0)
(-0.0973759 -0.0432069 0)
(-0.0829321 -0.0459604 0)
(-0.0675458 -0.0459179 0)
(-0.052093 -0.0430099 0)
(-0.0374942 -0.0374751 0)
(-0.0246153 -0.029884 0)
(-0.0141527 -0.0211227 0)
(-0.00651935 -0.0123361 0)
(-0.00183547 -0.00484425 0)
(-0.000115411 -0.000118616 0)
(-0.000819567 0.00682562 0)
(-0.0051312 0.0196887 0)
(-0.0136469 0.0306359 0)
(-0.0246884 0.0392979 0)
(-0.0374221 0.0456826 0)
(-0.0512902 0.0499442 0)
(-0.0657969 0.0522666 0)
(-0.0805033 0.0527934 0)
(-0.0950058 0.0515979 0)
(-0.108909 0.0486896 0)
(-0.121814 0.0440439 0)
(-0.133311 0.0376421 0)
(-0.142989 0.0295147 0)
(-0.150444 0.0197782 0)
(-0.155296 0.00866491 0)
(-0.157215 -0.00345944 0)
(-0.155939 -0.0160902 0)
(-0.151311 -0.0285902 0)
(-0.143311 -0.0402175 0)
(-0.132092 -0.0501694 0)
(-0.118015 -0.0576514 0)
(-0.101666 -0.0619668 0)
(-0.0838524 -0.0626233 0)
(-0.0655724 -0.0594413 0)
(-0.0479317 -0.0526436 0)
(-0.0320292 -0.0429017 0)
(-0.0188091 -0.0313221 0)
(-0.00890445 -0.0193642 0)
(-0.00262265 -0.00870839 0)
(-0.000205126 -0.00118032 0)
(-0.000956572 0.00975063 0)
(-0.00591098 0.0269626 0)
(-0.01561 0.0410659 0)
(-0.0280871 0.0519476 0)
(-0.0423779 0.0598186 0)
(-0.0578614 0.0649831 0)
(-0.0740046 0.0677249 0)
(-0.0903507 0.0682433 0)
(-0.10649 0.0666355 0)
(-0.122025 0.0629137 0)
(-0.136554 0.0570454 0)
(-0.149663 0.0490037 0)
(-0.160924 0.0388165 0)
(-0.169906 0.0266109 0)
(-0.176186 0.0126463 0)
(-0.179369 -0.00266057 0)
(-0.179109 -0.0187241 0)
(-0.175145 -0.0347938 0)
(-0.167345 -0.0499718 0)
(-0.155752 -0.0632583 0)
(-0.140637 -0.073625 0)
(-0.122539 -0.0801223 0)
(-0.102294 -0.0820157 0)
(-0.0810131 -0.0789376 0)
(-0.0600083 -0.071026 0)
(-0.0406642 -0.0590116 0)
(-0.0242459 -0.0442193 0)
(-0.011682 -0.0284631 0)
(-0.00352878 -0.0138537 0)
(-0.000303642 -0.0026582 0)
(-0.00107254 0.0130648 0)
(-0.00657421 0.0351393 0)
(-0.0172868 0.0527158 0)
(-0.0310026 0.0659976 0)
(-0.0466474 0.0754483 0)
(-0.0635482 0.0815603 0)
(-0.0811441 0.0847427 0)
(-0.0989698 0.0852673 0)
(-0.116619 0.0832633 0)
(-0.133705 0.0787478 0)
(-0.149834 0.0716785 0)
(-0.164598 0.0620125 0)
(-0.177562 0.0497637 0)
(-0.188277 0.0350522 0)
(-0.196275 0.0181438 0)
(-0.201093 -0.000518211 0)
(-0.20229 -0.0202902 0)
(-0.199484 -0.0403273 0)
(-0.192398 -0.0595851 0)
(-0.180922 -0.0768577 0)
(-0.165187 -0.0908516 0)
(-0.145635 -0.100304 0)
(-0.123077 -0.104153 0)
(-0.0987083 -0.101736 0)
(-0.0740539 -0.0930047 0)
(-0.0508299 -0.0786749 0)
(-0.0307059 -0.0602711 0)
(-0.0150035 -0.0400058 0)
(-0.00461737 -0.0205136 0)
(-0.000423045 -0.00462508 0)
(-0.00116345 0.0167001 0)
(-0.00709914 0.0440652 0)
(-0.0186238 0.0653855 0)
(-0.0333428 0.0812285 0)
(-0.0500966 0.0923505 0)
(-0.0681724 0.099464 0)
(-0.0869909 0.103127 0)
(-0.106086 0.103701 0)
(-0.125065 0.101355 0)
(-0.14356 0.0961152 0)
(-0.161199 0.0879269 0)
(-0.177589 0.0767239 0)
(-0.192303 0.0624922 0)
(-0.204879 0.0453253 0)
(-0.214818 0.0254705 0)
(-0.221592 0.00336846 0)
(-0.224666 -0.0203143 0)
(-0.223526 -0.0446641 0)
(-0.217729 -0.0685109 0)
(-0.206978 -0.0904485 0)
(-0.191207 -0.108897 0)
(-0.17069 -0.122227 0)
(-0.146141 -0.128947 0)
(-0.118775 -0.127974 0)
(-0.0903038 -0.118925 0)
(-0.0628027 -0.10238 0)
(-0.0384324 -0.0800081 0)
(-0.0190304 -0.0544563 0)
(-0.00595756 -0.0289991 0)
(-0.000576272 -0.00718997 0)
(-0.00122494 0.0205762 0)
(-0.00746405 0.0535602 0)
(-0.0195691 0.0788402 0)
(-0.0350194 0.0973809 0)
(-0.052595 0.110259 0)
(-0.0715552 0.118433 0)
(-0.0913104 0.122632 0)
(-0.111401 0.123318 0)
(-0.131455 0.120714 0)
(-0.15113 0.114859 0)
(-0.170087 0.105685 0)
(-0.187962 0.0930962 0)
(-0.204348 0.0770369 0)
(-0.218788 0.0575546 0)
(-0.230768 0.0348516 0)
(-0.239713 0.00933295 0)
(-0.245007 -0.0183498 0)
(-0.246011 -0.0472531 0)
(-0.242111 -0.0761188 0)
(-0.232793 -0.103366 0)
(-0.217745 -0.127129 0)
(-0.196993 -0.14537 0)
(-0.171051 -0.156079 0)
(-0.141052 -0.157596 0)
(-0.108817 -0.149012 0)
(-0.0767705 -0.130583 0)
(-0.0476391 -0.104004 0)
(-0.0239215 -0.0723615 0)
(-0.00762102 -0.0397011 0)
(-0.000777074 -0.0104999 0)
(-0.00125313 0.0246013 0)
(-0.0076505 0.0634205 0)
(-0.0200793 0.092814 0)
(-0.0359564 0.114157 0)
(-0.0540266 0.128863 0)
(-0.0735315 0.138153 0)
(-0.0938773 0.142943 0)
(-0.114616 0.143815 0)
(-0.135398 0.141053 0)
(-0.155918 0.134716 0)
(-0.175876 0.124725 0)
(-0.194949 0.110951 0)
(-0.212769 0.0932857 0)
(-0.228906 0.0717147 0)
(-0.242853 0.0463702 0)
(-0.254021 0.017589 0)
(-0.26174 -0.0140309 0)
(-0.265271 -0.0475684 0)
(-0.263846 -0.0817311 0)
(-0.256726 -0.114814 0)
(-0.243314 -0.144698 0)
(-0.223308 -0.168931 0)
(-0.196899 -0.184913 0)
(-0.164995 -0.190249 0)
(-0.129385 -0.183266 0)
(-0.0927688 -0.163621 0)
(-0.0584754 -0.13282 0)
(-0.02982 -0.094328 0)
(-0.00967991 -0.0530852 0)
(-0.00104039 -0.0147407 0)
(-0.00124562 0.0286746 0)
(-0.00764725 0.0734244 0)
(-0.0201267 0.107015 0)
(-0.0361025 0.131225 0)
(-0.054307 0.147808 0)
(-0.073972 0.158254 0)
(-0.0945027 0.163681 0)
(-0.115464 0.164802 0)
(-0.136533 0.161978 0)
(-0.157445 0.155296 0)
(-0.177948 0.144673 0)
(-0.197774 0.129943 0)
(-0.216608 0.110945 0)
(-0.234073 0.0875889 0)
(-0.249703 0.0599194 0)
(-0.262932 0.0281768 0)
(-0.273081 -0.00713574 0)
(-0.279358 -0.0451772 0)
(-0.280878 -0.0846876 0)
(-0.276699 -0.123916 0)
(-0.265922 -0.160567 0)
(-0.247853 -0.191813 0)
(-0.222242 -0.214437 0)
(-0.189585 -0.225178 0)
(-0.151437 -0.221334 0)
(-0.110607 -0.201598 0)
(-0.0709842 -0.166928 0)
(-0.0368379 -0.120982 0)
(-0.0122046 -0.0696807 0)
(-0.00138286 -0.0201373 0)
(-0.00120239 0.0326918 0)
(-0.0074544 0.0833422 0)
(-0.0197091 0.121138 0)
(-0.0354453 0.148233 0)
(-0.0534026 0.166704 0)
(-0.072807 0.178317 0)
(-0.0930649 0.184397 0)
(-0.113754 0.185805 0)
(-0.13458 0.18299 0)
(-0.155321 0.176083 0)
(-0.175778 0.165001 0)
(-0.195751 0.149553 0)
(-0.214997 0.129523 0)
(-0.233216 0.104745 0)
(-0.25002 0.0751655 0)
(-0.264909 0.0409075 0)
(-0.277252 0.00234343 0)
(-0.286264 -0.0398211 0)
(-0.291001 -0.0844357 0)
(-0.290374 -0.12981 0)
(-0.283205 -0.173583 0)
(-0.268383 -0.212658 0)
(-0.245112 -0.243249 0)
(-0.213286 -0.261154 0)
(-0.173964 -0.262389 0)
(-0.129789 -0.244242 0)
(-0.0850492 -0.206595 0)
(-0.0450344 -0.152908 0)
(-0.0152602 -0.0900598 0)
(-0.00182328 -0.0269525 0)
(-0.00112659 0.0365521 0)
(-0.00708752 0.0929502 0)
(-0.0188586 0.13488 0)
(-0.034026 0.164817 0)
(-0.0513499 0.18514 0)
(-0.0700531 0.197883 0)
(-0.089543 0.204588 0)
(-0.109411 0.206275 0)
(-0.12939 0.203498 0)
(-0.149302 0.196442 0)
(-0.169013 0.185045 0)
(-0.188395 0.169099 0)
(-0.207297 0.148344 0)
(-0.225518 0.122542 0)
(-0.242778 0.0915416 0)
(-0.258693 0.0553408 0)
(-0.272735 0.0141546 0)
(-0.284192 -0.0314916 0)
(-0.292145 -0.0806322 0)
(-0.295438 -0.131761 0)
(-0.292684 -0.182605 0)
(-0.282379 -0.229964 0)
(-0.263131 -0.269618 0)
(-0.234075 -0.296456 0)
(-0.195478 -0.305033 0)
(-0.149443 -0.290764 0)
(-0.100336 -0.251743 0)
(-0.0543881 -0.19056 0)
(-0.018901 -0.114805 0)
(-0.00238297 -0.035485 0)
(-0.00102536 0.0401678 0)
(-0.00658159 0.10205 0)
(-0.0176509 0.14796 0)
(-0.0319535 0.180628 0)
(-0.0482754 0.202703 0)
(-0.0658359 0.216477 0)
(-0.0840447 0.223716 0)
(-0.102507 0.225611 0)
(-0.120988 0.222837 0)
(-0.139358 0.215656 0)
(-0.157549 0.204038 0)
(-0.175516 0.187777 0)
(-0.193212 0.166583 0)
(-0.210555 0.140163 0)
(-0.227402 0.108277 0)
(-0.243519 0.0708014 0)
(-0.258532 0.0277839 0)
(-0.271857 -0.020465 0)
(-0.282701 -0.0732274 0)
(-0.28995 -0.129304 0)
(-0.292103 -0.186674 0)
(-0.287357 -0.242254 0)
(-0.273756 -0.29163 0)
(-0.249581 -0.328951 0)
(-0.21405 -0.347273 0)
(-0.16829 -0.339731 0)
(-0.116238 -0.301793 0)
(-0.0647645 -0.234144 0)
(-0.0231638 -0.144462 0)
(-0.00308627 -0.0460631 0)
(-0.000910515 0.0434759 0)
(-0.00599502 0.110493 0)
(-0.0162142 0.160149 0)
(-0.0294177 0.195355 0)
(-0.0444111 0.218998 0)
(-0.0604092 0.233623 0)
(-0.0768279 0.241224 0)
(-0.0932937 0.243181 0)
(-0.109609 0.240308 0)
(-0.125699 0.232958 0)
(-0.14157 0.221156 0)
(-0.15727 0.204714 0)
(-0.172863 0.183334 0)
(-0.188396 0.156686 0)
(-0.203882 0.124462 0)
(-0.21926 0.086433 0)
(-0.234345 0.0424969 0)
(-0.248727 -0.00725991 0)
(-0.261826 -0.0625152 0)
(-0.272678 -0.122352 0)
(-0.2798 -0.185185 0)
(-0.281241 -0.248306 0)
(-0.274603 -0.307424 0)
(-0.257341 -0.356276 0)
(-0.227455 -0.386595 0)
(-0.184668 -0.389015 0)
(-0.131838 -0.355518 0)
(-0.075884 -0.283485 0)
(-0.028062 -0.179479 0)
(-0.00396173 -0.0590378 0)
(-0.000799639 0.0464517 0)
(-0.00541479 0.118206 0)
(-0.0147398 0.171298 0)
(-0.0267027 0.208752 0)
(-0.0401084 0.233675 0)
(-0.0541662 0.248868 0)
(-0.0683092 0.256568 0)
(-0.0822 0.258359 0)
(-0.0956937 0.255209 0)
(-0.108784 0.247583 0)
(-0.12156 0.235574 0)
(-0.134169 0.219036 0)
(-0.14679 0.19768 0)
(-0.15961 0.17116 0)
(-0.172792 0.139123 0)
(-0.186447 0.101252 0)
(-0.200595 0.0573066 0)
(-0.215136 0.00715261 0)
(-0.229648 -0.0492019 0)
(-0.24334 -0.111274 0)
(-0.254996 -0.178031 0)
(-0.262699 -0.247362 0)
(-0.263811 -0.315466 0)
(-0.255119 -0.376124 0)
(-0.233396 -0.420177 0)
(-0.196637 -0.435841 0)
(-0.145916 -0.410935 0)
(-0.0872975 -0.337869 0)
(-0.0335836 -0.220125 0)
(-0.00504555 -0.0747746 0)
(-0.000718374 0.0491266 0)
(-0.00496492 0.125226 0)
(-0.0134958 0.181375 0)
(-0.0242016 0.220666 0)
(-0.0358482 0.246446 0)
(-0.0476435 0.2618 0)
(-0.0590602 0.269229 0)
(-0.0698256 0.270538 0)
(-0.0798736 0.266866 0)
(-0.0892865 0.2588 0)
(-0.0982505 0.24652 0)
(-0.107021 0.22993 0)
(-0.115895 0.208769 0)
(-0.12519 0.182694 0)
(-0.135222 0.151325 0)
(-0.146271 0.114284 0)
(-0.158554 0.0712052 0)
(-0.17218 0.0217663 0)
(-0.187009 -0.0342335 0)
(-0.202563 -0.0968516 0)
(-0.217901 -0.165653 0)
(-0.231349 -0.239296 0)
(-0.240314 -0.31481 0)
(-0.24121 -0.386569 0)
(-0.229773 -0.445189 0)
(-0.20215 -0.476965 0)
(-0.156993 -0.465286 0)
(-0.0983752 -0.395903 0)
(-0.0396968 -0.266401 0)
(-0.00638973 -0.0936499 0)
(-0.000705797 0.0516117 0)
(-0.00482297 0.131745 0)
(-0.0128511 0.190498 0)
(-0.0224366 0.231061 0)
(-0.0322507 0.257104 0)
(-0.041516 0.272055 0)
(-0.049787 0.278722 0)
(-0.056903 0.279148 0)
(-0.0629172 0.274651 0)
(-0.0680302 0.265946 0)
(-0.0725433 0.253302 0)
(-0.0768262 0.236682 0)
(-0.0812932 0.215863 0)
(-0.0863847 0.190514 0)
(-0.0925486 0.160251 0)
(-0.100215 0.124651 0)
(-0.109768 0.0832716 0)
(-0.121509 0.035647 0)
(-0.135565 -0.0186969 0)
(-0.151785 -0.0801917 0)
(-0.169594 -0.149006 0)
(-0.187727 -0.224659 0)
(-0.203925 -0.305272 0)
(-0.214622 -0.386358 0)
(-0.214905 -0.459151 0)
(-0.199231 -0.508964 0)
(-0.163412 -0.51512 0)
(-0.108305 -0.455395 0)
(-0.0463661 -0.317939 0)
(-0.00807868 -0.116062 0)
(-0.00082673 0.0541367 0)
(-0.00525254 0.138163 0)
(-0.0133145 0.198978 0)
(-0.0220868 0.240034 0)
(-0.0300801 0.265511 0)
(-0.0365767 0.279306 0)
(-0.0412866 0.284585 0)
(-0.0442326 0.283646 0)
(-0.0456443 0.27798 0)
(-0.0458778 0.268422 0)
(-0.0453703 0.25532 0)
(-0.0446118 0.238694 0)
(-0.0441266 0.218353 0)
(-0.0444613 0.193989 0)
(-0.0461759 0.165216 0)
(-0.0498151 0.131584 0)
(-0.0558906 0.0926008 0)
(-0.0648759 0.0477038 0)
(-0.0771172 -0.00379402 0)
(-0.0927578 -0.0626128 0)
(-0.111629 -0.129439 0)
(-0.132992 -0.204614 0)
(-0.155167 -0.287472 0)
(-0.175042 -0.375097 0)
(-0.187607 -0.460247 0)
(-0.186088 -0.528567 0)
(-0.163396 -0.55647 0)
(-0.116077 -0.513274 0)
(-0.0535676 -0.373868 0)
(-0.0102579 -0.142464 0)
(-0.00119826 0.0571187 0)
(-0.00666445 0.145164 0)
(-0.0155967 0.207348 0)
(-0.0240189 0.247798 0)
(-0.0302307 0.271569 0)
(-0.0336793 0.283219 0)
(-0.0343517 0.286339 0)
(-0.0325565 0.283482 0)
(-0.0287708 0.276286 0)
(-0.0235492 0.265674 0)
(-0.0174838 0.252048 0)
(-0.0111863 0.235462 0)
(-0.00527797 0.215749 0)
(-0.000388565 0.192611 0)
(0.002833 0.165661 0)
(0.00376241 0.134445 0)
(0.00181142 0.0984313 0)
(-0.00363817 0.0569833 0)
(-0.0131044 0.00932334 0)
(-0.0269684 -0.0454859 0)
(-0.0454583 -0.108508 0)
(-0.0683975 -0.180755 0)
(-0.0948609 -0.262718 0)
(-0.122574 -0.353279 0)
(-0.147068 -0.447523 0)
(-0.161085 -0.53296 0)
(-0.155032 -0.585077 0)
(-0.120418 -0.565541 0)
(-0.0612718 -0.432646 0)
(-0.0131729 -0.173434 0)
(-0.00204348 0.0612898 0)
(-0.00972286 0.153824 0)
(-0.0206897 0.216367 0)
(-0.0292877 0.254619 0)
(-0.0336385 0.275125 0)
(-0.0335717 0.283365 0)
(-0.029543 0.283412 0)
(-0.0222807 0.278038 0)
(-0.0125908 0.268966 0)
(-0.00126616 0.257142 0)
(0.0109345 0.242973 0)
(0.0232853 0.226514 0)
(0.0350842 0.207599 0)
(0.0456403 0.185925 0)
(0.0542641 0.161099 0)
(0.0602796 0.132671 0)
(0.0630251 0.100086 0)
(0.0618232 0.0626692 0)
(0.0560232 0.0196212 0)
(0.045016 -0.0301046 0)
(0.0282495 -0.0877819 0)
(0.00536697 -0.15487 0)
(-0.0235216 -0.232786 0)
(-0.0572647 -0.322161 0)
(-0.0925267 -0.420928 0)
(-0.122531 -0.519989 0)
(-0.136102 -0.596596 0)
(-0.119598 -0.607223 0)
(-0.0693168 -0.491769 0)
(-0.0171937 -0.209746 0)
(-0.00379376 0.0679378 0)
(-0.0155077 0.165722 0)
(-0.0299082 0.226936 0)
(-0.0389862 0.260631 0)
(-0.0409479 0.275767 0)
(-0.0364179 0.279035 0)
(-0.0266021 0.274984 0)
(-0.0128085 0.266499 0)
(0.00374971 0.255267 0)
(0.0220145 0.242158 0)
(0.0410663 0.22751 0)
(0.0600858 0.211328 0)
(0.0783183 0.193415 0)
(0.0950448 0.17345 0)
(0.109563 0.151035 0)
(0.121176 0.125708 0)
(0.129187 0.0969219 0)
(0.132872 0.0640155 0)
(0.131484 0.026186 0)
(0.124235 -0.0176028 0)
(0.110305 -0.0686734 0)
(0.0888802 -0.128679 0)
(0.0593077 -0.19962 0)
(0.0215052 -0.283541 0)
(-0.0227735 -0.381209 0)
(-0.0682926 -0.488284 0)
(-0.103733 -0.586777 0)
(-0.111038 -0.632281 0)
(-0.0770247 -0.54726 0)
(-0.0227407 -0.252299 0)
(-0.00726337 0.0793411 0)
(-0.0256987 0.182992 0)
(-0.0446838 0.239772 0)
(-0.0535714 0.265383 0)
(-0.0514613 0.272396 0)
(-0.0404833 0.268886 0)
(-0.0229635 0.259712 0)
(-0.000948995 0.24764 0)
(0.0238939 0.234126 0)
(0.0502539 0.21982 0)
(0.0770862 0.204898 0)
(0.103523 0.189255 0)
(0.128801 0.172628 0)
(0.152217 0.154663 0)
(0.173088 0.13495 0)
(0.190728 0.11303 0)
(0.204433 0.0883784 0)
(0.213451 0.0603805 0)
(0.216962 0.0282891 0)
(0.21404 -0.00884434 0)
(0.20365 -0.0522578 0)
(0.184618 -0.103566 0)
(0.155661 -0.164966 0)
(0.115646 -0.239366 0)
(0.0644294 -0.329909 0)
(0.00473535 -0.437478 0)
(-0.0537759 -0.551757 0)
(-0.0905278 -0.633501 0)
(-0.0823376 -0.592834 0)
(-0.0299072 -0.301785 0)
(-0.0138581 0.0994611 0)
(-0.0425133 0.207973 0)
(-0.0653738 0.254479 0)
(-0.0705957 0.266867 0)
(-0.0601763 0.262422 0)
(-0.0388064 0.250351 0)
(-0.010295 0.235325 0)
(0.022515 0.219575 0)
(0.0575715 0.204032 0)
(0.0934178 0.188947 0)
(0.128993 0.174225 0)
(0.163477 0.159594 0)
(0.196183 0.144696 0)
(0.226483 0.129137 0)
(0.253765 0.112498 0)
(0.2774 0.0943405 0)
(0.296709 0.0741868 0)
(0.310941 0.0514974 0)
(0.319236 0.0256334 0)
(0.320567 -0.00420534 0)
(0.313759 -0.0390575 0)
(0.297381 -0.0803336 0)
(0.2697 -0.13008 0)
(0.228753 -0.191414 0)
(0.172712 -0.269002 0)
(0.101296 -0.368283 0)
(0.0202304 -0.488625 0)
(-0.0507747 -0.602588 0)
(-0.080298 -0.619037 0)
(-0.0374714 -0.358552 0)
(-0.0254063 0.134916 0)
(-0.0670554 0.240927 0)
(-0.0864905 0.266632 0)
(-0.077946 0.259098 0)
(-0.0503461 0.240108 0)
(-0.011883 0.218667 0)
(0.0322643 0.198179 0)
(0.0788336 0.179667 0)
(0.125783 0.163175 0)
(0.171847 0.148378 0)
(0.216211 0.134828 0)
(0.258296 0.122059 0)
(0.297633 0.109619 0)
(0.33378 0.0970847 0)
(0.366275 0.0840509 0)
(0.394603 0.0701244 0)
(0.418169 0.0549042 0)
(0.436273 0.0379572 0)
(0.448069 0.0187883 0)
(0.452508 -0.00321178 0)
(0.448363 -0.0287703 0)
(0.434056 -0.0589983 0)
(0.407612 -0.0955488 0)
(0.366551 -0.141163 0)
(0.307803 -0.200736 0)
(0.228184 -0.282533 0)
(0.128192 -0.395607 0)
(0.0209587 -0.53106 0)
(-0.0608411 -0.612675 0)
(-0.0408161 -0.421912 0)
(-0.0413322 0.19709 0)
(-0.0902731 0.272486 0)
(-0.0798304 0.259223 0)
(-0.0360689 0.226522 0)
(0.0220645 0.193866 0)
(0.0848278 0.165994 0)
(0.14761 0.143376 0)
(0.208176 0.12518 0)
(0.265507 0.110357 0)
(0.3192 0.097986 0)
(0.369123 0.0873275 0)
(0.415222 0.07779 0)
(0.457426 0.0688944 0)
(0.4956 0.0602436 0)
(0.529522 0.0514973 0)
(0.558861 0.0423511 0)
(0.583168 0.0325169 0)
(0.601862 0.0217016 0)
(0.614182 0.00958139 0)
(0.619221 -0.00424261 0)
(0.615803 -0.0201695 0)
(0.602351 -0.0389154 0)
(0.576906 -0.0615774 0)
(0.536827 -0.0900884 0)
(0.478398 -0.128322 0)
(0.396321 -0.184475 0)
(0.285269 -0.273843 0)
(0.146117 -0.410553 0)
(-0.00331098 -0.554042 0)
(-0.0253648 -0.477553 0)
(-0.0341762 0.293638 0)
(-0.0480312 0.272437 0)
(0.0535532 0.199427 0)
(0.156638 0.149682 0)
(0.249703 0.114992 0)
(0.332176 0.0902219 0)
(0.404952 0.0726629 0)
(0.469184 0.060082 0)
(0.526109 0.0507748 0)
(0.576829 0.0435971 0)
(0.622194 0.0378012 0)
(0.662799 0.0328806 0)
(0.699022 0.0284765 0)
(0.731053 0.0243234 0)
(0.758913 0.0202161 0)
(0.782477 0.0159865 0)
(0.801478 0.0114874 0)
(0.815512 0.0065831 0)
(0.823977 0.00113357 0)
(0.826261 -0.00494159 0)
(0.821417 -0.0119616 0)
(0.808166 -0.0201987 0)
(0.7849 -0.0301217 0)
(0.749313 -0.0426661 0)
(0.697811 -0.0598846 0)
(0.624294 -0.086868 0)
(0.518487 -0.137146 0)
(0.365158 -0.24025 0)
(0.14415 -0.406965 0)
(0.058875 -0.458304 0)
(0.30319 0.180885 0)
(0.382342 0.14419 0)
(0.560465 0.0910347 0)
(0.686179 0.0589266 0)
(0.768917 0.0393441 0)
(0.828691 0.0269009 0)
(0.874834 0.019029 0)
(0.911681 0.0140493 0)
(0.941918 0.0108155 0)
(0.967336 0.00861535 0)
(0.989067 0.00702622 0)
(1.0078 0.00579441 0)
(1.02395 0.00476244 0)
(1.03774 0.00382893 0)
(1.04923 0.00292545 0)
(1.05842 0.00200286 0)
(1.06518 0.00102214 0)
(1.06934 -4.63178e-05 0)
(1.07067 -0.00123519 0)
(1.06879 -0.00247312 0)
(1.06321 -0.00394194 0)
(1.05345 -0.00567781 0)
(1.03873 -0.00775863 0)
(1.01787 -0.0103936 0)
(0.988809 -0.0140833 0)
(0.947428 -0.0201729 0)
(0.883916 -0.0325567 0)
(0.776322 -0.0637369 0)
(0.544814 -0.139457 0)
(0.38249 -0.201733 0)
)
;

boundaryField
{
    movingWall
    {
        type            fixedValue;
        value           uniform (1.2 0 0);
    }
    fixedWalls
    {
        type            noSlip;
    }
    frontAndBack
    {
        type            empty;
    }
}


// ************************************************************************* //
