/*--------------------------------*- C++ -*----------------------------------*\
  =========                 |
  \\      /  F ield         | OpenFOAM: The Open Source CFD Toolbox
   \\    /   O peration     | Website:  https://openfoam.org
    \\  /    A nd           | Version:  7
     \\/     M anipulation  |
\*---------------------------------------------------------------------------*/
FoamFile
{
    version     2.0;
    format      ascii;
    class       volScalarField;
    location    "3.2";
    object      p;
}
// * * * * * * * * * * * * * * * * * * * * * * * * * * * * * * * * * * * * * //

dimensions      [0 2 -2 0 0 0 0];

internalField   nonuniform List<scalar> 
900
(
-1.12876e-08
-0.000263588
-0.000649495
-0.00100829
-0.00127839
-0.00141343
-0.0013921
-0.00120743
-0.000858833
-0.000348652
0.000318798
0.00113661
0.00209369
0.0031728
0.00434857
0.00558626
0.00684152
0.0080615
0.00918789
0.0101616
0.0109291
0.0114489
0.0116986
0.0116804
0.0114234
0.0109848
0.0104464
0.00990433
0.00949017
0.00931702
0.000260338
-8.84336e-06
-0.000289565
-0.000537413
-0.000709728
-0.000773265
-0.000710564
-0.000513792
-0.000180123
0.000290177
0.000894278
0.00162633
0.00247637
0.00342883
0.00446119
0.00554292
0.00663663
0.00769692
0.00867502
0.00952206
0.0101943
0.010659
0.0108997
0.0109206
0.0107478
0.0104293
0.0100305
0.00962878
0.00930796
0.00914269
0.000658298
0.000262922
-2.62853e-05
-0.000242515
-0.000377478
-0.000409801
-0.000328491
-0.000128811
0.000191354
0.000632306
0.00119244
0.00186756
0.00264972
0.00352583
0.00447628
0.00547417
0.00648506
0.00746776
0.00837702
0.00916713
0.00979691
0.0102353
0.0104667
0.0104946
0.0103433
0.0100556
0.00968949
0.00931185
0.00898359
0.00873765
0.00104278
0.000498618
0.000157741
-6.60317e-05
-0.000194561
-0.000217564
-0.000131502
6.37252e-05
0.000368337
0.000782633
0.00130626
0.00193715
0.00267007
0.003495
0.00439549
0.00534752
0.00631904
0.00727032
0.00815651
0.00893108
0.009551
0.00998275
0.010208
0.010228
0.0100647
0.00975883
0.00936567
0.00894903
0.00855512
0.00818424
0.00133877
0.000638086
0.000231351
-1.67194e-05
-0.000154398
-0.000180985
-9.99967e-05
8.40207e-05
0.000369311
0.000756208
0.00124584
0.00183868
0.00253272
0.0033215
0.00419199
0.00512284
0.00608444
0.0070368
0.0079336
0.00872487
0.00936263
0.00980763
0.010036
0.0100447
0.00985286
0.00950039
0.00904364
0.00854892
0.00805468
0.00753606
0.00147295
0.000620606
0.000143065
-0.000138866
-0.000296344
-0.000336706
-0.000269619
-0.000103706
0.00015766
0.000515155
0.000971747
0.00153087
0.00219428
0.0029596
0.00381764
0.00474987
0.00572979
0.0067155
0.00765791
0.00850138
0.00918995
0.00967514
0.00992414
0.00992667
0.00969819
0.00927841
0.00872796
0.00812134
0.00749665
0.00681004
0.00138878
0.000394524
-0.000153814
-0.000474588
-0.000659025
-0.000721271
-0.000676208
-0.000535813
-0.000304534
1.90887e-05
0.000440306
0.000966051
0.00160246
0.00235202
0.00321047
0.00416374
0.00518535
0.00623508
0.00725943
0.008195
0.0089748
0.00953704
0.00983546
0.00984866
0.00958564
0.00908583
0.00841684
0.0076669
0.00688049
0.00599876
0.00103993
-8.54403e-05
-0.000702062
-0.00106389
-0.00128031
-0.00137148
-0.00135673
-0.00125075
-0.00105852
-0.000777349
-0.000399235
8.68554e-05
0.000692265
0.00142545
0.00228846
0.00327323
0.00435519
0.00549666
0.00663998
0.00771286
0.00863422
0.00932423
0.00971711
0.00977416
0.00949309
0.00891102
0.0081043
0.00718046
0.00619605
0.00507843
0.000385483
-0.000860403
-0.00154196
-0.00194607
-0.00219899
-0.00232644
-0.00235178
-0.00229191
-0.00215201
-0.00192784
-0.00160825
-0.0011775
-0.000618069
8.5994e-05
0.000945011
0.00195888
0.00311063
0.00436539
0.00566373
0.00692467
0.0080505
0.00893775
0.00949304
0.00965101
0.00938965
0.00873859
0.0077829
0.00665492
0.00542871
0.00401615
-0.000611779
-0.00196781
-0.00271094
-0.0031587
-0.00345328
-0.00362591
-0.00370377
-0.00370584
-0.00363747
-0.00349281
-0.00325739
-0.00291033
-0.00242687
-0.00178171
-0.000953379
7.00263e-05
0.00128334
0.00266046
0.00414423
0.00564724
0.00705394
0.00823141
0.0090482
0.00939868
0.0092272
0.00854536
0.00744354
0.00608404
0.00456405
0.00277621
-0.00198552
-0.00344126
-0.00424291
-0.00473639
-0.00507914
-0.00530804
-0.0054543
-0.00553926
-0.00556876
-0.00553575
-0.00542272
-0.00520349
-0.00484523
-0.00431131
-0.0035656
-0.00257888
-0.00133782
0.000149115
0.00183436
0.00363026
0.00540513
0.00699188
0.00820871
0.00889098
0.00892766
0.00829334
0.00707393
0.00546478
0.00359264
0.001326
-0.00376521
-0.00530997
-0.00616743
-0.00670955
-0.00710837
-0.0074069
-0.00764095
-0.00783494
-0.00799613
-0.00811725
-0.00817864
-0.00814931
-0.00798799
-0.00764499
-0.00706575
-0.00619712
-0.00499739
-0.00344891
-0.00157402
0.000550214
0.0027828
0.00492128
0.00672136
0.00793576
0.00836652
0.0079195
0.00665508
0.00479948
0.00251542
-0.000357541
-0.00597494
-0.00759788
-0.00850873
-0.00910289
-0.00956643
-0.00994928
-0.0102929
-0.0106261
-0.010959
-0.011286
-0.0115868
-0.0118272
-0.0119579
-0.0119151
-0.0116224
-0.0109959
-0.00995454
-0.00844041
-0.00643199
-0.00397763
-0.00121266
0.00163142
0.00423966
0.00625624
0.00735444
0.00732256
0.00615614
0.00409807
0.00135071
-0.00227946
-0.00863208
-0.0103229
-0.0112848
-0.0119339
-0.01247
-0.012951
-0.0134257
-0.0139292
-0.0144768
-0.0150668
-0.0156813
-0.016285
-0.0168225
-0.017216
-0.0173651
-0.0171493
-0.0164381
-0.0151105
-0.0130865
-0.0103567
-0.00702548
-0.00333534
0.000330176
0.00348482
0.00562415
0.0063506
0.00552879
0.00338147
0.00014417
-0.00441411
-0.0117462
-0.0134965
-0.0145068
-0.0152116
-0.0158244
-0.016413
-0.0170356
-0.0177362
-0.0185383
-0.0194472
-0.0204509
-0.0215167
-0.022586
-0.0235691
-0.0243407
-0.0247394
-0.0245751
-0.0236478
-0.0218008
-0.0189276
-0.0150675
-0.0104415
-0.00548212
-0.000813596
0.00283545
0.00479701
0.00470517
0.00268833
-0.0010159
-0.0066856
-0.0153188
-0.0171243
-0.0181796
-0.0189362
-0.0196219
-0.0203175
-0.0210936
-0.0220065
-0.023091
-0.0243637
-0.025822
-0.0274403
-0.0291611
-0.0308862
-0.0324671
-0.0337
-0.0343317
-0.0340789
-0.0326525
-0.0298494
-0.025594
-0.0200358
-0.0136129
-0.00706853
-0.00138268
0.00241877
0.0036067
0.00208842
-0.00197544
-0.0089383
-0.0193444
-0.0212087
-0.0223039
-0.0230995
-0.0238409
-0.0246254
-0.0255412
-0.0266605
-0.0280334
-0.0296913
-0.0316456
-0.0338816
-0.0363479
-0.0389421
-0.0414965
-0.0437675
-0.0454359
-0.0461211
-0.0454153
-0.0429693
-0.0385533
-0.0321909
-0.0242606
-0.0155689
-0.00733442
-0.00100553
0.00217601
0.00170871
-0.00248042
-0.0108938
-0.023814
-0.0257535
-0.0268803
-0.0276876
-0.0284456
-0.0292751
-0.0302874
-0.031576
-0.0332104
-0.03524
-0.0376934
-0.0405706
-0.0438299
-0.0473694
-0.0510071
-0.0544648
-0.0573616
-0.0592223
-0.0595101
-0.0577303
-0.0534597
-0.0465436
-0.0372237
-0.0262795
-0.0150993
-0.00556275
0.000445552
0.00177989
-0.00212781
-0.0120909
-0.0287226
-0.030773
-0.0319163
-0.0326853
-0.0333885
-0.0341817
-0.0352082
-0.0365888
-0.038416
-0.0407597
-0.0436672
-0.0471552
-0.0511935
-0.0556836
-0.0604338
-0.065137
-0.0693586
-0.0725422
-0.0740395
-0.0731717
-0.0693516
-0.0622028
-0.0517574
-0.0386587
-0.0243412
-0.0110408
-0.00134611
0.00271281
-0.000297971
-0.0118049
-0.0340816
-0.0363068
-0.0374383
-0.038082
-0.038613
-0.0392393
-0.0401492
-0.0414974
-0.0434024
-0.0459553
-0.0492217
-0.0532335
-0.0579713
-0.0633401
-0.0691402
-0.0750408
-0.0805626
-0.08508
-0.0878471
-0.0880352
-0.0848862
-0.0777993
-0.0665549
-0.0515623
-0.0341491
-0.0167475
-0.00259697
0.00521131
0.00393599
-0.00893888
-0.0399433
-0.0424435
-0.0435069
-0.0438801
-0.0440559
-0.0443229
-0.0449297
-0.0460724
-0.0478965
-0.0505122
-0.0539994
-0.0584009
-0.0637037
-0.0698123
-0.0765175
-0.0834666
-0.0901425
-0.0958612
-0.0997925
-0.101005
-0.0985736
-0.0916989
-0.079905
-0.0633109
-0.0429983
-0.0213844
-0.00217958
0.0104167
0.0119247
-0.00187623
-0.0464446
-0.0493597
-0.0502398
-0.0501028
-0.0496497
-0.0492895
-0.0493489
-0.0500695
-0.0516211
-0.0541265
-0.0576721
-0.0623031
-0.0680044
-0.0746726
-0.0820832
-0.0898589
-0.0974469
-0.104114
-0.10896
-0.110964
-0.109074
-0.102322
-0.090003
-0.0719417
-0.0488924
-0.0230553
0.00166036
0.0200555
0.0255859
0.0117276
-0.0538954
-0.0573847
-0.0578416
-0.0568003
-0.0553198
-0.0539782
-0.0531921
-0.0532449
-0.0543194
-0.0565382
-0.0599812
-0.0646831
-0.0706154
-0.0776545
-0.0855518
-0.0938981
-0.102103
-0.109387
-0.114785
-0.117192
-0.115449
-0.108454
-0.0953097
-0.0755819
-0.0496846
-0.0194614
0.0112681
0.0365387
0.047583
0.0352607
-0.0629622
-0.0671074
-0.0666396
-0.0640492
-0.0609756
-0.0582062
-0.0562371
-0.0553706
-0.0557783
-0.0575601
-0.0607698
-0.0654144
-0.0714388
-0.0786831
-0.0868652
-0.0955352
-0.104054
-0.111584
-0.117097
-0.119414
-0.117271
-0.109435
-0.0948427
-0.0728352
-0.0435184
-0.00829523
0.0293238
0.0629376
0.0815604
0.0736361
-0.0750749
-0.0795517
-0.0771056
-0.0719243
-0.0664811
-0.0617501
-0.0582469
-0.0562377
-0.0558376
-0.0570886
-0.0599925
-0.0645077
-0.0705295
-0.0778557
-0.0861534
-0.0949223
-0.103468
-0.110891
-0.116089
-0.117796
-0.114634
-0.105226
-0.0883363
-0.0630891
-0.0293057
0.0121704
0.0582542
0.102697
0.132315
0.13377
-0.0933648
-0.096468
-0.0898066
-0.0803921
-0.0715598
-0.064271
-0.0589126
-0.0556109
-0.054352
-0.0550699
-0.0576786
-0.0620633
-0.068054
-0.0753893
-0.0836779
-0.0923618
-0.100687
-0.107687
-0.112182
-0.112812
-0.108062
-0.0963883
-0.0763382
-0.0467453
-0.00704037
0.0423403
0.0993457
0.158784
0.205329
0.224456
-0.124766
-0.120735
-0.105308
-0.0891693
-0.0756556
-0.0651918
-0.0577554
-0.0531565
-0.0511384
-0.051457
-0.0538955
-0.0582405
-0.0642424
-0.0715722
-0.0797779
-0.0882441
-0.0961602
-0.1025
-0.106015
-0.105259
-0.0985491
-0.0841729
-0.0603885
-0.0256104
0.0213301
0.0808575
0.152312
0.23192
0.305007
0.357538
-0.184881
-0.155378
-0.123559
-0.0972645
-0.0775283
-0.0634223
-0.0539903
-0.0483993
-0.0459797
-0.046229
-0.0487655
-0.0532649
-0.059399
-0.0667782
-0.0749009
-0.0831081
-0.0905479
-0.09615
-0.0986217
-0.0964667
-0.0878434
-0.0709083
-0.0435554
-0.00363259
0.0509997
0.122348
0.212175
0.319613
0.43374
0.559987
-0.316844
-0.195738
-0.135599
-0.096577
-0.0708438
-0.0543713
-0.0444673
-0.0392321
-0.0374589
-0.038412
-0.0416043
-0.0466567
-0.0532103
-0.060858
-0.0690883
-0.0772371
-0.0844504
-0.089652
-0.0915165
-0.0884402
-0.0788893
-0.0606162
-0.0312866
0.0117777
0.0718984
0.153521
0.263045
0.408763
0.597366
0.887009
-0.643607
-0.231751
-0.103941
-0.0614402
-0.0389938
-0.0265836
-0.0210676
-0.0197724
-0.0211575
-0.0245468
-0.0296064
-0.0360895
-0.0437412
-0.0522388
-0.061141
-0.0698457
-0.0775566
-0.083262
-0.0857311
-0.0835192
-0.0747334
-0.0573818
-0.0291565
0.012822
0.0724708
0.156125
0.276195
0.460832
0.767137
1.3611
)
;

boundaryField
{
    movingWall
    {
        type            zeroGradient;
    }
    fixedWalls
    {
        type            zeroGradient;
    }
    frontAndBack
    {
        type            empty;
    }
}


// ************************************************************************* //
