/*--------------------------------*- C++ -*----------------------------------*\
  =========                 |
  \\      /  F ield         | OpenFOAM: The Open Source CFD Toolbox
   \\    /   O peration     | Website:  https://openfoam.org
    \\  /    A nd           | Version:  7
     \\/     M anipulation  |
\*---------------------------------------------------------------------------*/
FoamFile
{
    version     2.0;
    format      ascii;
    class       surfaceScalarField;
    location    "3.2";
    object      phi;
}
// * * * * * * * * * * * * * * * * * * * * * * * * * * * * * * * * * * * * * //

dimensions      [0 3 -1 0 0 0 0];

internalField   nonuniform List<scalar> 
1740
(
4.60195e-07
-4.60185e-07
-8.04149e-08
5.40599e-07
-1.80861e-06
1.7282e-06
-4.55367e-06
2.74506e-06
-8.03052e-06
3.47684e-06
-1.19693e-05
3.93882e-06
-1.61473e-05
4.17798e-06
-2.03862e-05
4.23888e-06
-2.45387e-05
4.15253e-06
-2.84739e-05
3.93518e-06
-3.20651e-05
3.59113e-06
-3.51823e-05
3.11722e-06
-3.76904e-05
2.50812e-06
-3.94523e-05
1.76187e-06
-4.03376e-05
8.85292e-07
-4.02359e-05
-1.01604e-07
-3.90731e-05
-1.16287e-06
-3.68292e-05
-2.24384e-06
-3.3555e-05
-3.27424e-06
-2.93822e-05
-4.17279e-06
-2.4527e-05
-4.85518e-06
-1.92822e-05
-5.24478e-06
-1.3998e-05
-5.28425e-06
-9.05196e-06
-4.94603e-06
-4.81203e-06
-4.23993e-06
-1.59395e-06
-3.21809e-06
3.89962e-07
-1.98391e-06
1.10162e-06
-7.11664e-07
7.21641e-07
3.79982e-07
7.2164e-07
-5.30033e-07
6.9839e-08
-3.34307e-06
3.35364e-06
-8.69085e-06
7.07597e-06
-1.61854e-05
1.02396e-05
-2.53058e-05
1.25972e-05
-3.5509e-05
1.4142e-05
-4.62947e-05
1.49637e-05
-5.7223e-05
1.51673e-05
-6.79055e-05
1.4835e-05
-7.79856e-05
1.40153e-05
-8.71212e-05
1.27266e-05
-9.49727e-05
1.09688e-05
-0.000101202
8.73774e-06
-0.000105483
6.04242e-06
-0.000107518
2.92013e-06
-0.000107073
-5.46105e-07
-0.000104003
-4.2329e-06
-9.8298e-05
-7.94896e-06
-9.01079e-05
-1.14644e-05
-7.97645e-05
-1.45162e-05
-6.77837e-05
-1.6836e-05
-5.48455e-05
-1.8183e-05
-4.175e-05
-1.83798e-05
-2.93494e-05
-1.73466e-05
-1.84628e-05
-1.51266e-05
-9.77745e-06
-1.19034e-05
-3.74493e-06
-8.01644e-06
-4.77348e-07
-3.97925e-06
4.3305e-07
-5.30417e-07
1.15469e-06
-1.80568e-06
1.87553e-06
-7.38029e-06
8.92826e-06
-1.64158e-05
1.61115e-05
-2.83367e-05
2.21605e-05
-4.24352e-05
2.66957e-05
-5.79872e-05
2.96941e-05
-7.43103e-05
3.12867e-05
-9.07825e-05
3.16395e-05
-0.000106836
3.08889e-05
-0.000121941
2.91202e-05
-0.000135586
2.63711e-05
-0.000147267
2.26504e-05
-0.000156494
1.79642e-05
-0.000162798
1.23462e-05
-0.000165764
5.88668e-06
-0.00016507
-1.24037e-06
-0.000160527
-8.77556e-06
-0.000152134
-1.63423e-05
-0.000140112
-2.34867e-05
-0.000124932
-2.9696e-05
-0.000107318
-3.44492e-05
-8.82222e-05
-3.72792e-05
-6.87596e-05
-3.78424e-05
-5.01216e-05
-3.59847e-05
-3.34551e-05
-3.17931e-05
-1.9729e-05
-2.56295e-05
-9.59634e-06
-1.81491e-05
-3.26543e-06
-1.03102e-05
-3.97973e-07
-3.39787e-06
7.56714e-07
-3.07086e-06
4.94638e-06
-1.13704e-05
1.72278e-05
-2.40295e-05
2.87705e-05
-4.01472e-05
3.82782e-05
-5.88117e-05
4.53602e-05
-7.91446e-05
5.0027e-05
-0.000100329
5.24711e-05
-0.000121615
5.29254e-05
-0.000142308
5.1582e-05
-0.000161751
4.85632e-05
-0.000179306
4.39261e-05
-0.000194346
3.76899e-05
-0.000206256
2.98746e-05
-0.000214456
2.05461e-05
-0.00021843
9.8602e-06
-0.000217771
-1.8989e-06
-0.000212238
-1.43089e-05
-0.000201809
-2.67709e-05
-0.000186734
-3.85615e-05
-0.000167566
-4.88639e-05
-0.000145171
-5.68442e-05
-0.000120701
-6.17492e-05
-9.55273e-05
-6.30166e-05
-7.11297e-05
-6.03823e-05
-4.89552e-05
-5.39676e-05
-3.02526e-05
-4.43321e-05
-1.59095e-05
-3.24921e-05
-6.31471e-06
-1.99049e-05
-1.27179e-06
-8.44079e-06
-5.15077e-07
-4.21683e-06
9.16319e-06
-1.50985e-05
2.81095e-05
-3.12129e-05
4.48849e-05
-5.13009e-05
5.83662e-05
-7.42247e-05
6.8284e-05
-9.8957e-05
7.47592e-05
-0.000124571
7.80852e-05
-0.000150224
7.85787e-05
-0.000175135
7.64929e-05
-0.000198558
7.19862e-05
-0.000219764
6.51322e-05
-0.00023803
5.59556e-05
-0.000252641
4.4486e-05
-0.000262913
3.08178e-05
-0.000268225
1.51717e-05
-0.000268073
-2.05062e-06
-0.000262123
-2.02583e-05
-0.000250292
-3.86021e-05
-0.000232799
-5.60548e-05
-0.000210218
-7.14447e-05
-0.000183502
-8.35603e-05
-0.000153963
-9.12881e-05
-0.000123207
-9.37728e-05
-9.30105e-05
-9.05786e-05
-6.51543e-05
-8.18237e-05
-4.12236e-05
-6.82629e-05
-2.2412e-05
-5.13037e-05
-9.36361e-06
-3.29533e-05
-2.08939e-06
-1.5715e-05
-2.60446e-06
-5.24112e-06
1.44043e-05
-1.8518e-05
4.13864e-05
-3.78805e-05
6.42474e-05
-6.17129e-05
8.21987e-05
-8.86477e-05
9.52187e-05
-0.000117513
0.000103624
-0.000147287
0.00010786
-0.000177063
0.000108354
-0.000206
0.00010543
-0.000233298
9.9284e-05
-0.000258164
8.99986e-05
-0.000279802
7.75933e-05
-0.000297408
6.20922e-05
-0.000310192
4.36023e-05
-0.000317412
2.23917e-05
-0.000318437
-1.0263e-06
-0.000312784
-2.59109e-05
-0.000300247
-5.11392e-05
-0.000280944
-7.53583e-05
-0.000255401
-9.69875e-05
-0.000224601
-0.00011436
-0.000189985
-0.000125904
-0.000153397
-0.000130361
-0.000116953
-0.000127023
-8.28448e-05
-0.000115932
-5.30964e-05
-9.80113e-05
-2.93144e-05
-7.50857e-05
-1.24844e-05
-4.97834e-05
-2.86408e-06
-2.53353e-05
-5.46854e-06
-6.16404e-06
2.05684e-05
-2.16492e-05
5.68716e-05
-4.40451e-05
8.66433e-05
-7.14034e-05
0.000109557
-0.000102136
0.000125952
-0.000134937
0.000136425
-0.000168707
0.00014163
-0.000202492
0.000142139
-0.000235425
0.000138363
-0.000266674
0.000130533
-0.00029541
0.000118735
-0.00032078
0.000102963
-0.000341898
8.32104e-05
-0.000357863
5.9567e-05
-0.000367786
3.23156e-05
-0.000370852
2.03956e-06
-0.000366394
-3.03695e-05
-0.000353987
-6.35461e-05
-0.000333564
-9.57806e-05
-0.000305521
-0.000125031
-0.000270799
-0.000149082
-0.000230932
-0.000165772
-0.000188005
-0.000173287
-0.000144534
-0.000170493
-0.000103233
-0.000157233
-6.67082e-05
-0.000134536
-3.71255e-05
-0.000104668
-1.59287e-05
-7.09802e-05
-3.67413e-06
-3.75898e-05
-9.14268e-06
-7.00451e-06
2.75729e-05
-2.45252e-05
7.43923e-05
-4.97463e-05
0.000111864
-8.04187e-05
0.000140229
-0.000114755
0.000160288
-0.00015133
0.000173
-0.000188985
0.000179286
-0.000226745
0.000179898
-0.000263735
0.000175353
-0.000299124
0.000165922
-0.000332066
0.000151677
-0.00036167
0.000132566
-0.000386976
0.000108517
-0.000406963
7.95531e-05
-0.00042057
4.59232e-05
-0.000426753
8.22215e-06
-0.000424585
-3.2537e-05
-0.000413343
-7.47883e-05
-0.000392671
-0.000116453
-0.000362724
-0.000154978
-0.000324311
-0.000187494
-0.000278992
-0.000211091
-0.000229087
-0.000223192
-0.000177568
-0.000222013
-0.000127797
-0.000207004
-8.31456e-05
-0.000179188
-4.65401e-05
-0.000141274
-2.00502e-05
-9.747e-05
-4.6271e-06
-5.3013e-05
-1.37698e-05
-7.77365e-06
3.53465e-05
-2.71685e-05
9.37871e-05
-5.50108e-05
0.000139707
-8.87859e-05
0.000174004
-0.000126531
0.000198033
-0.000166722
0.000213191
-0.000208164
0.000220728
-0.00024988
0.000221614
-0.000291017
0.000216491
-0.000330769
0.000205674
-0.0003683
0.000189209
-0.0004027
0.000166966
-0.000432946
0.000138762
-0.000457893
0.0001045
-0.000476291
6.4321e-05
-0.000486831
1.8762e-05
-0.000488249
-3.11186e-05
-0.000479438
-8.35998e-05
-0.000459637
-0.000136253
-0.000428637
-0.000185979
-0.000386982
-0.000229149
-0.000336153
-0.000261919
-0.000278654
-0.000280692
-0.000217939
-0.000282727
-0.000158152
-0.000266791
-0.000103646
-0.000233694
-5.83684e-05
-0.000186551
-2.52631e-05
-0.000130575
-5.84495e-06
-7.24311e-05
-1.96147e-05
-8.47441e-06
4.38209e-05
-2.95837e-05
0.000114896
-5.98384e-05
0.000169961
-9.64911e-05
0.000210657
-0.000137428
0.00023897
-0.000181051
0.000256814
-0.000226145
0.000265821
-0.000271758
0.000267227
-0.000317086
0.000261819
-0.000361373
0.000249961
-0.000403825
0.00023166
-0.000443535
0.000206677
-0.000479438
0.000174665
-0.000510274
0.000135337
-0.000534598
8.86442e-05
-0.000550809
3.49732e-05
-0.000557258
-2.4669e-05
-0.000552368
-8.84905e-05
-0.000534861
-0.00015376
-0.000504012
-0.000216828
-0.000459938
-0.000273224
-0.000403879
-0.000317978
-0.000338398
-0.000346173
-0.000267405
-0.00035372
-0.00019592
-0.000338276
-0.000129513
-0.000300102
-7.34923e-05
-0.000242572
-3.20229e-05
-0.000172045
-7.46008e-06
-9.69939e-05
-2.70748e-05
-9.10316e-06
5.29241e-05
-3.17586e-05
0.000137552
-6.42004e-05
0.000202403
-0.000103476
0.000249933
-0.000147345
0.000282839
-0.00019415
0.000303619
-0.000242679
0.000314351
-0.000292027
0.000316575
-0.000341464
0.000311255
-0.000390314
0.000298811
-0.000437851
0.000279198
-0.00048321
0.000252036
-0.000525309
0.000216764
-0.000562803
0.000172831
-0.000594064
0.000119905
-0.000617203
5.81123e-05
-0.000630165
-1.17071e-05
-0.000630842
-8.78137e-05
-0.000617344
-0.000167258
-0.000588279
-0.000245893
-0.000543136
-0.000318367
-0.000482687
-0.000378427
-0.00040934
-0.00041952
-0.000327324
-0.000435736
-0.00024255
-0.00042305
-0.000162029
-0.000380623
-9.28284e-05
-0.000311772
-4.08187e-05
-0.000224054
-9.6159e-06
-0.000128197
-3.66907e-05
-9.65223e-06
6.25763e-05
-3.36707e-05
0.00016157
-6.8048e-05
0.000236781
-0.00010965
0.000291535
-0.000156122
0.000329311
-0.000205764
0.00035326
-0.000257381
0.000365969
-0.000310135
0.000369328
-0.000363389
0.00036451
-0.000416578
0.000351999
-0.000469078
0.000331698
-0.000520099
0.000303056
-0.000568588
0.000265253
-0.00061316
0.000217402
-0.000652051
0.000158796
-0.000683124
8.91852e-05
-0.000703929
9.09793e-06
-0.000711839
-7.99038e-05
-0.00070428
-0.000174817
-0.000679067
-0.000271105
-0.000634852
-0.000362582
-0.000571646
-0.000441632
-0.000491376
-0.00049979
-0.000398297
-0.000528815
-0.000299085
-0.000522262
-0.000202324
-0.000477384
-0.000117283
-0.000396813
-5.21654e-05
-0.000289172
-1.24695e-05
-0.000167893
-4.91602e-05
-1.01135e-05
7.26898e-05
-3.52964e-05
0.000186753
-7.13293e-05
0.000272813
-0.000114908
0.000335113
-0.00016357
0.000377973
-0.000215577
0.000405268
-0.000269763
0.000420154
-0.000325364
0.000424929
-0.000381857
0.000421003
-0.000438809
0.000408952
-0.000495731
0.00038862
-0.000551951
0.000359276
-0.000606498
0.000319801
-0.000658013
0.000268917
-0.000704678
0.000205461
-0.000744192
0.000128699
-0.00077379
3.86965e-05
-0.00079039
-6.3304e-05
-0.000790743
-0.000174464
-0.000771802
-0.000290046
-0.000731188
-0.000403196
-0.000667835
-0.000504986
-0.000582741
-0.000584884
-0.000479715
-0.000631841
-0.00036583
-0.000636147
-0.000251198
-0.000592016
-0.000147679
-0.000500332
-6.65917e-05
-0.000370259
-1.61949e-05
-0.000218289
-6.53551e-05
-1.04833e-05
8.31731e-05
-3.66256e-05
0.000212896
-7.40131e-05
0.000310201
-0.000119168
0.000380268
-0.000169514
0.000428319
-0.00022327
0.000459025
-0.000279295
0.000476179
-0.000336907
0.000482541
-0.000395706
0.000479803
-0.000455409
0.000468655
-0.000515689
0.000448899
-0.000576033
0.00041962
-0.000635618
0.000379386
-0.000693193
0.000326493
-0.000746998
0.000259265
-0.0007947
0.000176401
-0.000833387
7.7384e-05
-0.000859622
-3.70693e-05
-0.000869628
-0.000164457
-0.000859506
-0.000300168
-0.000825738
-0.000436964
-0.000765875
-0.000564849
-0.000679476
-0.000671282
-0.000569226
-0.000742091
-0.000441929
-0.000763444
-0.000308843
-0.000725102
-0.000184637
-0.000624538
-8.46119e-05
-0.000470284
-2.09838e-05
-0.000281918
-8.6339e-05
-1.07687e-05
9.39418e-05
-3.76806e-05
0.000239807
-7.61221e-05
0.000348642
-0.000122417
0.000426562
-0.000173851
0.000479753
-0.000228584
0.000513759
-0.000285493
0.000533087
-0.000343972
0.00054102
-0.000403751
0.000539581
-0.000464702
0.000529606
-0.000526684
0.000510881
-0.000589384
0.00048232
-0.000652188
0.00044219
-0.000714055
0.00038836
-0.000773412
0.000318622
-0.000828072
0.000231061
-0.000875192
0.000124504
-0.000911175
-1.08607e-06
-0.000931991
-0.000143641
-0.000933005
-0.000299154
-0.000909593
-0.000460377
-0.000857722
-0.00061672
-0.000775014
-0.00075399
-0.000662212
-0.000854893
-0.000524847
-0.00090081
-0.000374476
-0.000875472
-0.000228388
-0.000770627
-0.00010667
-0.000592001
-2.7043e-05
-0.000361545
-0.000113382
-1.09955e-05
0.000104937
-3.85396e-05
0.000267351
-7.77731e-05
0.000387876
-0.000124764
0.000473553
-0.000176618
0.000531606
-0.000231411
0.000568552
-0.000288021
0.000589697
-0.000345916
0.000598916
-0.000404947
0.000598613
-0.000465152
0.000589811
-0.000526586
0.000572315
-0.000589172
0.000544906
-0.000652565
0.000505582
-0.000716028
0.000451824
-0.000778325
0.000380918
-0.000837606
0.000290342
-0.000891311
0.000178209
-0.000936163
4.37663e-05
-0.000967908
-0.000111896
-0.000981665
-0.000285398
-0.000971875
-0.000470166
-0.000932917
-0.000655679
-0.000860115
-0.000826792
-0.000751443
-0.000963564
-0.000609886
-0.00104237
-0.000445892
-0.00103947
-0.000278501
-0.000938018
-0.00013305
-0.000737452
-3.45836e-05
-0.000460012
-0.000147965
-1.12194e-05
0.000116157
-3.93675e-05
0.0002955
-7.9227e-05
0.000427735
-0.000126507
0.000520833
-0.000178071
0.00058317
-0.00023188
0.00062236
-0.000286803
0.00064462
-0.000342378
0.000654491
-0.000398577
0.000654811
-0.000455603
0.000646837
-0.000513721
0.000630433
-0.000573113
0.000604299
-0.000633757
0.000566226
-0.00069531
0.000513376
-0.000757
0.000442608
-0.000817509
0.000350852
-0.000874848
0.000235549
-0.000926222
9.514e-05
-0.00096779
-7.03274e-05
-0.000994717
-0.000258471
-0.00100094
-0.000463948
-0.000979502
-0.000677113
-0.000923378
-0.000882916
-0.000827147
-0.00105979
-0.000689893
-0.00117962
-0.000519024
-0.00121034
-0.000333559
-0.00112348
-0.000163743
-0.000907268
-4.38044e-05
-0.00057995
-0.00019177
-1.15403e-05
0.000127697
-4.04552e-05
0.000324414
-8.09473e-05
0.000468228
-0.000128203
0.000568089
-0.000178761
0.000633728
-0.000230444
0.000674044
-0.000282119
0.000696295
-0.000333403
0.000705774
-0.0003844
0.000705809
-0.000435489
0.000697926
-0.000487153
0.000682097
-0.000539856
0.000657001
-0.000593933
0.000620303
-0.000649501
0.000568945
-0.00070636
0.000499466
-0.000763875
0.000408367
-0.000820836
0.00029251
-0.000875273
0.000149576
-0.000924076
-2.15245e-05
-0.000963036
-0.00021951
-0.000986113
-0.000440871
-0.00098561
-0.000677615
-0.00095248
-0.000916046
-0.000877717
-0.00113456
-0.000755399
-0.00130194
-0.000587689
-0.00137805
-0.000390821
-0.00132035
-0.00019829
-0.0010998
-5.48739e-05
-0.000723366
-0.000246644
-1.21257e-05
0.000139823
-4.22739e-05
0.000354563
-8.36729e-05
0.000509626
-0.000130741
0.000615157
-0.000179599
0.000682586
-0.000227937
0.000722381
-0.000274656
0.000743014
-0.000319499
0.000750617
-0.000362739
0.000749049
-0.000404952
0.000740139
-0.000446857
0.000724003
-0.000489215
0.000699359
-0.000532745
0.000663833
-0.00057806
0.000614259
-0.000625586
0.000546993
-0.000675466
0.000458247
-0.000727408
0.000344451
-0.000780464
0.000202632
-0.00083274
3.07517e-05
-0.00088087
-0.00017138
-0.000919666
-0.000402075
-0.000941462
-0.000655819
-0.000935991
-0.000921517
-0.000891102
-0.00117945
-0.000795368
-0.00139767
-0.000643692
-0.00152972
-0.000446
-0.00151804
-0.000235629
-0.00131017
-6.7924e-05
-0.000891071
-0.000314568
-1.32486e-05
0.000153071
-4.55543e-05
0.000386868
-8.85067e-05
0.000552579
-0.000135409
0.000662059
-0.00018189
0.000729068
-0.000225565
0.000766056
-0.000265476
0.000782924
-0.000301587
0.000786729
-0.000334413
0.000781876
-0.000364775
0.000770501
-0.000393659
0.000752886
-0.000422136
0.000727836
-0.000451318
0.000693015
-0.000482317
0.000645258
-0.000516197
0.000580873
-0.000553893
0.000495942
-0.000596073
0.000386632
-0.000642927
0.000249486
-0.000693889
8.17142e-05
-0.00074694
-0.00011833
-0.000798263
-0.000350752
-0.000841163
-0.000612919
-0.00086533
-0.00089735
-0.000856602
-0.00118818
-0.000798495
-0.00145578
-0.000677404
-0.00165081
-0.000493239
-0.00170221
-0.000273963
-0.00152945
-8.30726e-05
-0.00108196
-0.00039764
-1.53575e-05
0.000168429
-5.14095e-05
0.00042292
-9.70252e-05
0.000598195
-0.000143945
0.000708979
-0.000187298
0.000772421
-0.000224798
0.000803556
-0.000255831
0.000813957
-0.000280754
0.000811652
-0.000300443
0.000801565
-0.000316042
0.000786099
-0.000328841
0.000765685
-0.000340239
0.000739234
-0.00035173
0.000704506
-0.000364901
0.00065843
-0.000381408
0.00059738
-0.000402921
0.000517455
-0.000431014
0.000414725
-0.000466983
0.000285455
-0.00051156
0.000126291
-0.000564364
-6.55254e-05
-0.000623324
-0.000291792
-0.000683567
-0.000552676
-0.000736095
-0.000844822
-0.000766471
-0.0011578
-0.000754681
-0.00146757
-0.000678679
-0.00172682
-0.000525332
-0.00185555
-0.000310668
-0.00174411
-0.000100484
-0.00129215
-0.000498125
-1.9205e-05
0.000187634
-6.15228e-05
0.000465238
-0.000111394
0.000648066
-0.000158501
0.000756087
-0.000197646
0.000811566
-0.000227011
0.000832922
-0.000246676
0.000833622
-0.000257652
0.000822627
-0.000261346
0.000805259
-0.000259323
0.000784077
-0.000253228
0.00075959
-0.000244791
0.000730796
-0.000235859
0.000695575
-0.000228431
0.000651002
-0.000224665
0.000593614
-0.000226847
0.000519637
-0.000237319
0.000425197
-0.00025834
0.000306476
-0.000291838
0.000159789
-0.000339014
-1.83502e-05
-0.000399745
-0.000231061
-0.000471577
-0.000480844
-0.000548077
-0.000768323
-0.000616576
-0.0010893
-0.000656048
-0.0014281
-0.000637734
-0.00174513
-0.000534025
-0.00195926
-0.000342161
-0.00193598
-0.000120433
-0.00151387
-0.000618557
-2.60895e-05
0.000213723
-7.84166e-05
0.000517565
-0.000134412
0.000704061
-0.000181362
0.000803036
-0.00021431
0.000844514
-0.000232605
0.000851217
-0.000237561
0.000838578
-0.000231199
0.000816265
-0.000215672
0.000789732
-0.000193073
0.000761478
-0.000165435
0.000731952
-0.000134798
0.000700159
-0.000103308
0.000664085
-7.32773e-05
0.000620971
-4.72371e-05
0.000567573
-2.79379e-05
0.000500338
-1.82939e-05
0.000415553
-2.12745e-05
0.000309457
-3.97881e-05
0.000178303
-7.64481e-05
1.83098e-05
-0.000133036
-0.000174473
-0.000209751
-0.000404129
-0.000303594
-0.000674479
-0.000405606
-0.000987289
-0.000496891
-0.00133681
-0.00054541
-0.00169661
-0.000510038
-0.00199463
-0.000363522
-0.00208249
-0.000143222
-0.00173417
-0.000761779
-3.82898e-05
0.000252013
-0.000105746
0.000585022
-0.000169206
0.000767521
-0.000213937
0.000847768
-0.000236609
0.000867186
-0.000238911
0.000853519
-0.000224167
0.000823834
-0.000195849
0.000787947
-0.000157071
0.000750954
-0.000110533
0.000714941
-5.86486e-05
0.000680067
-3.70468e-06
0.000645215
5.19844e-05
0.000608396
0.000105931
0.000567025
0.000155412
0.000518092
0.000197426
0.000458324
0.000228691
0.000384288
0.000245686
0.000292462
0.000244748
0.000179241
0.000222201
4.08573e-05
0.000174629
-0.000126902
9.93427e-05
-0.000328842
-4.4075e-06
-0.000570729
-0.000132776
-0.000858921
-0.000272272
-0.00119731
-0.000392303
-0.00157658
-0.000442296
-0.00194464
-0.000367477
-0.00215731
-0.000168605
-0.00193305
-0.000930385
-5.97871e-05
0.0003118
-0.000148264
0.000673499
-0.000217646
0.000836903
-0.000253725
0.000883847
-0.00025765
0.00087111
-0.00023529
0.000831159
-0.000192954
0.000781497
-0.000135997
0.00073099
-6.86232e-05
0.00068358
5.8959e-06
0.000640422
8.48972e-05
0.000601066
0.000166016
0.000564096
0.000246943
0.000527469
0.000325242
0.000488725
0.000398217
0.000445117
0.000462832
0.000393709
0.000515677
0.000331443
0.000552961
0.000255178
0.000570531
0.000161671
0.000563892
4.74962e-05
0.00052834
-9.13501e-05
0.000459102
-0.000259604
0.000351969
-0.000463595
0.000205306
-0.000712257
2.50116e-05
-0.00101702
-0.000166401
-0.00138517
-0.000315749
-0.00179529
-0.000341964
-0.0021311
-0.000194
-0.00208101
-0.00112438
-9.70863e-05
0.000408887
-0.000209883
0.000786296
-0.000274588
0.000901608
-0.000285701
0.000894959
-0.000254086
0.000839496
-0.000192211
0.000769284
-0.000110227
0.000699513
-1.54679e-05
0.000636232
8.70185e-05
0.000581094
0.000193751
0.000533689
0.00030219
0.000492627
0.000410262
0.000456024
0.000516011
0.00042172
0.000617352
0.000387384
0.0007119
0.000350569
0.000796857
0.000308752
0.000868938
0.000259362
0.000924328
0.000199788
0.000958639
0.00012736
0.000966836
3.92996e-05
0.000943356
-6.78708e-05
0.000881899
-0.000198147
0.000775535
-0.000357232
0.000617629
-0.000554351
0.000405157
-0.00080455
0.000149152
-0.00112916
-0.000106084
-0.00154006
-0.000265273
-0.00197191
-0.000211277
-0.002135
-0.00133566
-0.000158401
0.000567288
-0.000282884
0.000910778
-0.000308799
0.000927523
-0.000259323
0.000845483
-0.000162626
0.000742799
-3.93233e-05
0.000645981
9.72436e-05
0.000562946
0.000239019
0.000494456
0.000381369
0.000438743
0.000521675
0.000393384
0.000658372
0.00035593
0.000790335
0.000324061
0.000916472
0.000295584
0.00103546
0.000268401
0.00114555
0.000240478
0.00124447
0.000209828
0.00132934
0.000174492
0.00139659
0.000132536
0.00144191
8.20459e-05
0.00145998
2.12276e-05
0.00144499
-5.28832e-05
0.00138967
-0.000142821
0.00128539
-0.000252952
0.001122
-0.00039096
0.000888731
-0.000571285
0.000580703
-0.000821134
0.000221159
-0.00118051
-9.66141e-05
-0.00165413
-0.000201044
-0.00203058
-0.00153671
-0.000241371
0.000808658
-0.000300244
0.000969652
-0.000204714
0.000831993
-3.34038e-05
0.000674173
0.000165661
0.000543734
0.000369493
0.000442149
0.000567374
0.000365065
0.000754823
0.000307007
0.000930565
0.000263002
0.00109479
0.000229162
0.00124816
0.000202552
0.00139133
0.000180891
0.0015246
0.000162318
0.00164775
0.000145249
0.00175996
0.000128273
0.00185969
0.000110099
0.00194466
8.9517e-05
0.00201184
6.53611e-05
0.00205737
3.6512e-05
0.00207613
2.46254e-06
0.00206279
-3.95403e-05
0.00200973
-8.97586e-05
0.00190801
-0.000151231
0.00174582
-0.000228772
0.0015072
-0.000332665
0.0011723
-0.000486235
0.000731352
-0.000739564
0.000243085
-0.00116587
-8.61837e-05
-0.00170131
-0.00162289
-0.000190344
0.000999002
2.70423e-05
0.000752265
0.000383257
0.000475779
0.00072235
0.000335079
0.00102244
0.000243648
0.00128367
0.000180912
0.00151027
0.000138466
0.00170762
0.000109661
0.00188098
8.96439e-05
0.00203483
7.53117e-05
0.00217268
6.4696e-05
0.0022971
5.64702e-05
0.00240974
4.9678e-05
0.00251141
4.35874e-05
0.00260207
3.76051e-05
0.00268094
3.12275e-05
0.00274645
2.4016e-05
0.0027962
1.56029e-05
0.00282697
5.74793e-06
0.0028359
-6.47267e-06
0.00281704
-2.06816e-05
0.00276492
-3.76344e-05
0.00267192
-5.82341e-05
0.00252729
-8.41382e-05
0.00231408
-0.000119459
0.00200326
-0.000175415
0.00154865
-0.000284948
0.000924639
-0.000541858
0.000262507
-0.00103918
-0.00136038
0.000999002
0.00175127
0.00222705
0.00256213
0.00280577
0.00298669
0.00312515
0.00323481
0.00332446
0.00339977
0.00346446
0.00352093
0.00357061
0.0036142
0.0036518
0.00368303
0.00370705
0.00372265
0.0037284
0.00372193
0.00370124
0.00366361
0.00360538
0.00352124
0.00340178
0.00322636
0.00294142
0.00239956
0.00136038
)
;

boundaryField
{
    movingWall
    {
        type            calculated;
        value           uniform 0;
    }
    fixedWalls
    {
        type            calculated;
        value           uniform 0;
    }
    frontAndBack
    {
        type            empty;
        value           nonuniform 0();
    }
}


// ************************************************************************* //
